ITEM: TIMESTEP
0
ITEM: NUMBER OF ATOMS
21600
ITEM: BOX BOUNDS pp pp pp
0.0000000000000000e+00 5.0000000000000000e+01
0.0000000000000000e+00 5.0000000000000000e+01
0.0000000000000000e+00 5.0000000000000000e+01
ITEM: ATOMS id type 
1 4 
2 3 
3 4 
4 1 
5 2 
6 1 
7 4 
8 3 
9 4 
10 4 
11 3 
12 4 
61 4 
62 3 
63 4 
64 4 
65 3 
66 4 
67 1 
68 2 
69 1 
70 1 
71 2 
72 1 
121 1 
122 2 
123 1 
124 4 
125 3 
126 4 
127 1 
128 2 
129 1 
130 4 
131 3 
132 4 
181 1 
182 2 
183 1 
184 1 
185 2 
186 1 
187 4 
188 3 
189 4 
190 4 
191 3 
192 4 
241 4 
242 3 
243 4 
244 1 
245 2 
246 1 
247 4 
248 3 
249 4 
250 4 
251 3 
252 4 
301 1 
302 2 
303 1 
304 4 
305 3 
306 4 
307 4 
308 3 
309 4 
310 1 
311 2 
312 1 
361 4 
362 3 
363 4 
364 1 
365 2 
366 1 
367 1 
368 2 
369 1 
370 1 
371 2 
372 1 
421 4 
422 3 
423 4 
424 4 
425 3 
426 4 
427 4 
428 3 
429 4 
430 1 
431 2 
432 1 
1021 4 
1022 3 
1023 4 
1024 4 
1025 3 
1026 4 
1027 4 
1028 3 
1029 4 
1030 4 
1031 3 
1032 4 
1081 4 
1082 3 
1083 4 
1084 1 
1085 2 
1086 1 
1087 4 
1088 3 
1089 4 
1090 1 
1091 2 
1092 1 
1141 1 
1142 2 
1143 1 
1144 1 
1145 2 
1146 1 
1147 1 
1148 2 
1149 1 
1150 4 
1151 3 
1152 4 
1201 1 
1202 2 
1203 1 
1204 4 
1205 3 
1206 4 
1207 4 
1208 3 
1209 4 
1210 4 
1211 3 
1212 4 
1261 4 
1262 3 
1263 4 
1264 1 
1265 2 
1266 1 
1267 4 
1268 3 
1269 4 
1270 1 
1271 2 
1272 1 
1321 1 
1322 2 
1323 1 
1324 4 
1325 3 
1326 4 
1327 4 
1328 3 
1329 4 
1330 4 
1331 3 
1332 4 
1381 4 
1382 3 
1383 4 
1384 1 
1385 2 
1386 1 
1387 1 
1388 2 
1389 1 
1390 1 
1391 2 
1392 1 
1441 4 
1442 3 
1443 4 
1444 1 
1445 2 
1446 1 
1447 4 
1448 3 
1449 4 
1450 4 
1451 3 
1452 4 
1501 4 
1502 3 
1503 4 
1504 4 
1505 3 
1506 4 
1507 4 
1508 3 
1509 4 
1510 1 
1511 2 
1512 1 
1561 1 
1562 2 
1563 1 
1564 1 
1565 2 
1566 1 
1567 1 
1568 2 
1569 1 
1570 1 
1571 2 
1572 1 
2161 1 
2162 2 
2163 1 
2164 1 
2165 2 
2166 1 
2167 4 
2168 3 
2169 4 
2170 4 
2171 3 
2172 4 
2221 1 
2222 2 
2223 1 
2224 4 
2225 3 
2226 4 
2227 1 
2228 2 
2229 1 
2230 4 
2231 3 
2232 4 
2281 1 
2282 2 
2283 1 
2284 4 
2285 3 
2286 4 
2287 4 
2288 3 
2289 4 
2290 4 
2291 3 
2292 4 
2341 1 
2342 2 
2343 1 
2344 1 
2345 2 
2346 1 
2347 1 
2348 2 
2349 1 
2350 4 
2351 3 
2352 4 
2401 4 
2402 3 
2403 4 
2404 1 
2405 2 
2406 1 
2407 1 
2408 2 
2409 1 
2410 1 
2411 2 
2412 1 
2461 1 
2462 2 
2463 1 
2464 4 
2465 3 
2466 4 
2467 1 
2468 2 
2469 1 
2470 1 
2471 2 
2472 1 
2521 1 
2522 2 
2523 1 
2524 1 
2525 2 
2526 1 
2527 1 
2528 2 
2529 1 
2530 1 
2531 2 
2532 1 
2581 1 
2582 2 
2583 1 
2584 1 
2585 2 
2586 1 
2587 1 
2588 2 
2589 1 
2590 1 
2591 2 
2592 1 
2641 1 
2642 2 
2643 1 
2644 4 
2645 3 
2646 4 
2647 1 
2648 2 
2649 1 
2650 4 
2651 3 
2652 4 
3301 1 
3302 2 
3303 1 
3304 1 
3305 2 
3306 1 
3307 4 
3308 3 
3309 4 
3310 4 
3311 3 
3312 4 
3361 4 
3362 3 
3363 4 
3364 4 
3365 3 
3366 4 
3367 4 
3368 3 
3369 4 
3370 4 
3371 3 
3372 4 
3421 1 
3422 2 
3423 1 
3424 4 
3425 3 
3426 4 
3427 4 
3428 3 
3429 4 
3430 1 
3431 2 
3432 1 
3481 4 
3482 3 
3483 4 
3484 1 
3485 2 
3486 1 
3487 1 
3488 2 
3489 1 
3490 4 
3491 3 
3492 4 
3541 1 
3542 2 
3543 1 
3544 1 
3545 2 
3546 1 
3547 4 
3548 3 
3549 4 
3550 1 
3551 2 
3552 1 
3601 1 
3602 2 
3603 1 
3604 4 
3605 3 
3606 4 
3607 1 
3608 2 
3609 1 
3610 1 
3611 2 
3612 1 
3661 4 
3662 3 
3663 4 
3664 1 
3665 2 
3666 1 
3667 1 
3668 2 
3669 1 
3670 4 
3671 3 
3672 4 
3721 4 
3722 3 
3723 4 
3724 4 
3725 3 
3726 4 
3727 1 
3728 2 
3729 1 
3730 4 
3731 3 
3732 4 
3781 4 
3782 3 
3783 4 
3784 1 
3785 2 
3786 1 
3787 1 
3788 2 
3789 1 
3790 1 
3791 2 
3792 1 
3841 4 
3842 3 
3843 4 
3844 1 
3845 2 
3846 1 
3847 1 
3848 2 
3849 1 
3850 1 
3851 2 
3852 1 
4501 1 
4502 2 
4503 1 
4504 4 
4505 3 
4506 4 
4507 1 
4508 2 
4509 1 
4510 4 
4511 3 
4512 4 
4561 4 
4562 3 
4563 4 
4564 1 
4565 2 
4566 1 
4567 4 
4568 3 
4569 4 
4570 1 
4571 2 
4572 1 
4621 1 
4622 2 
4623 1 
4624 4 
4625 3 
4626 4 
4627 4 
4628 3 
4629 4 
4630 1 
4631 2 
4632 1 
4681 1 
4682 2 
4683 1 
4684 4 
4685 3 
4686 4 
4687 1 
4688 2 
4689 1 
4690 4 
4691 3 
4692 4 
4741 4 
4742 3 
4743 4 
4744 1 
4745 2 
4746 1 
4747 4 
4748 3 
4749 4 
4750 1 
4751 2 
4752 1 
4801 4 
4802 3 
4803 4 
4804 1 
4805 2 
4806 1 
4807 1 
4808 2 
4809 1 
4810 4 
4811 3 
4812 4 
4861 1 
4862 2 
4863 1 
4864 1 
4865 2 
4866 1 
4867 1 
4868 2 
4869 1 
4870 4 
4871 3 
4872 4 
4921 1 
4922 2 
4923 1 
4924 1 
4925 2 
4926 1 
4927 1 
4928 2 
4929 1 
4930 4 
4931 3 
4932 4 
4981 1 
4982 2 
4983 1 
4984 4 
4985 3 
4986 4 
4987 4 
4988 3 
4989 4 
4990 4 
4991 3 
4992 4 
5641 1 
5642 2 
5643 1 
5644 4 
5645 3 
5646 4 
5647 1 
5648 2 
5649 1 
5650 1 
5651 2 
5652 1 
5701 1 
5702 2 
5703 1 
5704 4 
5705 3 
5706 4 
5707 4 
5708 3 
5709 4 
5710 4 
5711 3 
5712 4 
5761 1 
5762 2 
5763 1 
5764 4 
5765 3 
5766 4 
5767 4 
5768 3 
5769 4 
5770 1 
5771 2 
5772 1 
5821 1 
5822 2 
5823 1 
5824 4 
5825 3 
5826 4 
5827 1 
5828 2 
5829 1 
5830 4 
5831 3 
5832 4 
5881 4 
5882 3 
5883 4 
5884 4 
5885 3 
5886 4 
5887 4 
5888 3 
5889 4 
5890 4 
5891 3 
5892 4 
5941 1 
5942 2 
5943 1 
5944 1 
5945 2 
5946 1 
5947 4 
5948 3 
5949 4 
5950 1 
5951 2 
5952 1 
6001 1 
6002 2 
6003 1 
6004 4 
6005 3 
6006 4 
6007 1 
6008 2 
6009 1 
6010 1 
6011 2 
6012 1 
6601 1 
6602 2 
6603 1 
6604 1 
6605 2 
6606 1 
6607 4 
6608 3 
6609 4 
6610 1 
6611 2 
6612 1 
6661 4 
6662 3 
6663 4 
6664 4 
6665 3 
6666 4 
6667 4 
6668 3 
6669 4 
6670 1 
6671 2 
6672 1 
6721 4 
6722 3 
6723 4 
6724 4 
6725 3 
6726 4 
6727 4 
6728 3 
6729 4 
6730 4 
6731 3 
6732 4 
6781 4 
6782 3 
6783 4 
6784 1 
6785 2 
6786 1 
6787 1 
6788 2 
6789 1 
6790 1 
6791 2 
6792 1 
6841 1 
6842 2 
6843 1 
6844 1 
6845 2 
6846 1 
6847 4 
6848 3 
6849 4 
6850 4 
6851 3 
6852 4 
6901 1 
6902 2 
6903 1 
6904 4 
6905 3 
6906 4 
6907 4 
6908 3 
6909 4 
6910 4 
6911 3 
6912 4 
6961 1 
6962 2 
6963 1 
6964 4 
6965 3 
6966 4 
6967 4 
6968 3 
6969 4 
6970 4 
6971 3 
6972 4 
7021 1 
7022 2 
7023 1 
7024 1 
7025 2 
7026 1 
7027 1 
7028 2 
7029 1 
7030 4 
7031 3 
7032 4 
7081 4 
7082 3 
7083 4 
7084 1 
7085 2 
7086 1 
7087 4 
7088 3 
7089 4 
7090 4 
7091 3 
7092 4 
7141 1 
7142 2 
7143 1 
7144 4 
7145 3 
7146 4 
7147 1 
7148 2 
7149 1 
7150 4 
7151 3 
7152 4 
7801 4 
7802 3 
7803 4 
7804 1 
7805 2 
7806 1 
7807 4 
7808 3 
7809 4 
7810 1 
7811 2 
7812 1 
7861 1 
7862 2 
7863 1 
7864 4 
7865 3 
7866 4 
7867 4 
7868 3 
7869 4 
7870 1 
7871 2 
7872 1 
7921 1 
7922 2 
7923 1 
7924 4 
7925 3 
7926 4 
7927 4 
7928 3 
7929 4 
7930 1 
7931 2 
7932 1 
7981 1 
7982 2 
7983 1 
7984 1 
7985 2 
7986 1 
7987 4 
7988 3 
7989 4 
7990 1 
7991 2 
7992 1 
8041 1 
8042 2 
8043 1 
8044 1 
8045 2 
8046 1 
8047 4 
8048 3 
8049 4 
8050 1 
8051 2 
8052 1 
8101 1 
8102 2 
8103 1 
8104 1 
8105 2 
8106 1 
8107 1 
8108 2 
8109 1 
8110 1 
8111 2 
8112 1 
8161 1 
8162 2 
8163 1 
8164 1 
8165 2 
8166 1 
8167 4 
8168 3 
8169 4 
8170 4 
8171 3 
8172 4 
8221 1 
8222 2 
8223 1 
8224 4 
8225 3 
8226 4 
8227 4 
8228 3 
8229 4 
8230 1 
8231 2 
8232 1 
8281 4 
8282 3 
8283 4 
8284 1 
8285 2 
8286 1 
8287 1 
8288 2 
8289 1 
8290 4 
8291 3 
8292 4 
8341 1 
8342 2 
8343 1 
8344 1 
8345 2 
8346 1 
8347 1 
8348 2 
8349 1 
8350 4 
8351 3 
8352 4 
9001 4 
9002 3 
9003 4 
9004 1 
9005 2 
9006 1 
9007 1 
9008 2 
9009 1 
9010 4 
9011 3 
9012 4 
9061 1 
9062 2 
9063 1 
9064 4 
9065 3 
9066 4 
9067 1 
9068 2 
9069 1 
9070 4 
9071 3 
9072 4 
9121 4 
9122 3 
9123 4 
9124 1 
9125 2 
9126 1 
9127 4 
9128 3 
9129 4 
9130 1 
9131 2 
9132 1 
9181 4 
9182 3 
9183 4 
9184 1 
9185 2 
9186 1 
9187 4 
9188 3 
9189 4 
9190 4 
9191 3 
9192 4 
9241 1 
9242 2 
9243 1 
9244 4 
9245 3 
9246 4 
9247 4 
9248 3 
9249 4 
9250 4 
9251 3 
9252 4 
9301 4 
9302 3 
9303 4 
9304 4 
9305 3 
9306 4 
9307 4 
9308 3 
9309 4 
9310 4 
9311 3 
9312 4 
9361 1 
9362 2 
9363 1 
9364 1 
9365 2 
9366 1 
9367 4 
9368 3 
9369 4 
9370 4 
9371 3 
9372 4 
9421 4 
9422 3 
9423 4 
9424 1 
9425 2 
9426 1 
9427 1 
9428 2 
9429 1 
9430 4 
9431 3 
9432 4 
10081 1 
10082 2 
10083 1 
10084 4 
10085 3 
10086 4 
10087 1 
10088 2 
10089 1 
10090 4 
10091 3 
10092 4 
10141 4 
10142 3 
10143 4 
10144 1 
10145 2 
10146 1 
10147 4 
10148 3 
10149 4 
10150 1 
10151 2 
10152 1 
10201 1 
10202 2 
10203 1 
10204 1 
10205 2 
10206 1 
10207 1 
10208 2 
10209 1 
10210 1 
10211 2 
10212 1 
10261 1 
10262 2 
10263 1 
10264 4 
10265 3 
10266 4 
10267 4 
10268 3 
10269 4 
10270 4 
10271 3 
10272 4 
10321 1 
10322 2 
10323 1 
10324 1 
10325 2 
10326 1 
10327 1 
10328 2 
10329 1 
10330 4 
10331 3 
10332 4 
10381 4 
10382 3 
10383 4 
10384 1 
10385 2 
10386 1 
10387 1 
10388 2 
10389 1 
10390 1 
10391 2 
10392 1 
10441 4 
10442 3 
10443 4 
10444 4 
10445 3 
10446 4 
10447 1 
10448 2 
10449 1 
10450 1 
10451 2 
10452 1 
10501 4 
10502 3 
10503 4 
10504 4 
10505 3 
10506 4 
10507 4 
10508 3 
10509 4 
10510 1 
10511 2 
10512 1 
10561 4 
10562 3 
10563 4 
10564 4 
10565 3 
10566 4 
10567 1 
10568 2 
10569 1 
10570 1 
10571 2 
10572 1 
13 1 
14 2 
15 1 
16 4 
17 3 
18 4 
19 4 
20 3 
21 4 
22 1 
23 2 
24 1 
73 4 
74 3 
75 4 
76 4 
77 3 
78 4 
79 4 
80 3 
81 4 
82 4 
83 3 
84 4 
133 1 
134 2 
135 1 
136 4 
137 3 
138 4 
139 4 
140 3 
141 4 
142 4 
143 3 
144 4 
193 4 
194 3 
195 4 
196 1 
197 2 
198 1 
199 1 
200 2 
201 1 
202 1 
203 2 
204 1 
253 1 
254 2 
255 1 
256 1 
257 2 
258 1 
259 4 
260 3 
261 4 
262 1 
263 2 
264 1 
313 4 
314 3 
315 4 
316 1 
317 2 
318 1 
319 1 
320 2 
321 1 
322 1 
323 2 
324 1 
373 4 
374 3 
375 4 
376 4 
377 3 
378 4 
379 1 
380 2 
381 1 
382 1 
383 2 
384 1 
433 4 
434 3 
435 4 
436 1 
437 2 
438 1 
439 1 
440 2 
441 1 
442 1 
443 2 
444 1 
1033 1 
1034 2 
1035 1 
1036 1 
1037 2 
1038 1 
1039 1 
1040 2 
1041 1 
1042 1 
1043 2 
1044 1 
1093 4 
1094 3 
1095 4 
1096 4 
1097 3 
1098 4 
1099 4 
1100 3 
1101 4 
1102 4 
1103 3 
1104 4 
1153 4 
1154 3 
1155 4 
1156 1 
1157 2 
1158 1 
1159 4 
1160 3 
1161 4 
1162 4 
1163 3 
1164 4 
1213 4 
1214 3 
1215 4 
1216 1 
1217 2 
1218 1 
1219 1 
1220 2 
1221 1 
1222 1 
1223 2 
1224 1 
1273 1 
1274 2 
1275 1 
1276 1 
1277 2 
1278 1 
1279 4 
1280 3 
1281 4 
1282 1 
1283 2 
1284 1 
1333 1 
1334 2 
1335 1 
1336 4 
1337 3 
1338 4 
1339 4 
1340 3 
1341 4 
1342 4 
1343 3 
1344 4 
1393 1 
1394 2 
1395 1 
1396 4 
1397 3 
1398 4 
1399 1 
1400 2 
1401 1 
1402 4 
1403 3 
1404 4 
1453 1 
1454 2 
1455 1 
1456 1 
1457 2 
1458 1 
1459 1 
1460 2 
1461 1 
1462 1 
1463 2 
1464 1 
1513 1 
1514 2 
1515 1 
1516 4 
1517 3 
1518 4 
1519 4 
1520 3 
1521 4 
1522 4 
1523 3 
1524 4 
1573 1 
1574 2 
1575 1 
1576 1 
1577 2 
1578 1 
1579 4 
1580 3 
1581 4 
1582 4 
1583 3 
1584 4 
2173 1 
2174 2 
2175 1 
2176 1 
2177 2 
2178 1 
2179 1 
2180 2 
2181 1 
2182 4 
2183 3 
2184 4 
2233 1 
2234 2 
2235 1 
2236 1 
2237 2 
2238 1 
2239 1 
2240 2 
2241 1 
2242 4 
2243 3 
2244 4 
2293 1 
2294 2 
2295 1 
2296 4 
2297 3 
2298 4 
2299 4 
2300 3 
2301 4 
2302 4 
2303 3 
2304 4 
2353 4 
2354 3 
2355 4 
2356 1 
2357 2 
2358 1 
2359 4 
2360 3 
2361 4 
2362 1 
2363 2 
2364 1 
2413 1 
2414 2 
2415 1 
2416 4 
2417 3 
2418 4 
2419 1 
2420 2 
2421 1 
2422 4 
2423 3 
2424 4 
2473 4 
2474 3 
2475 4 
2476 1 
2477 2 
2478 1 
2479 1 
2480 2 
2481 1 
2482 4 
2483 3 
2484 4 
2533 1 
2534 2 
2535 1 
2536 1 
2537 2 
2538 1 
2539 1 
2540 2 
2541 1 
2542 1 
2543 2 
2544 1 
2593 1 
2594 2 
2595 1 
2596 4 
2597 3 
2598 4 
2599 1 
2600 2 
2601 1 
2602 4 
2603 3 
2604 4 
2653 4 
2654 3 
2655 4 
2656 1 
2657 2 
2658 1 
2659 4 
2660 3 
2661 4 
2662 1 
2663 2 
2664 1 
3313 1 
3314 2 
3315 1 
3316 1 
3317 2 
3318 1 
3319 1 
3320 2 
3321 1 
3322 4 
3323 3 
3324 4 
3373 1 
3374 2 
3375 1 
3376 4 
3377 3 
3378 4 
3379 4 
3380 3 
3381 4 
3382 4 
3383 3 
3384 4 
3433 4 
3434 3 
3435 4 
3436 4 
3437 3 
3438 4 
3439 4 
3440 3 
3441 4 
3442 4 
3443 3 
3444 4 
3493 1 
3494 2 
3495 1 
3496 4 
3497 3 
3498 4 
3499 1 
3500 2 
3501 1 
3502 1 
3503 2 
3504 1 
3553 1 
3554 2 
3555 1 
3556 1 
3557 2 
3558 1 
3559 1 
3560 2 
3561 1 
3562 1 
3563 2 
3564 1 
3613 1 
3614 2 
3615 1 
3616 1 
3617 2 
3618 1 
3619 4 
3620 3 
3621 4 
3622 1 
3623 2 
3624 1 
3673 4 
3674 3 
3675 4 
3676 4 
3677 3 
3678 4 
3679 4 
3680 3 
3681 4 
3682 1 
3683 2 
3684 1 
3733 4 
3734 3 
3735 4 
3736 1 
3737 2 
3738 1 
3739 4 
3740 3 
3741 4 
3742 4 
3743 3 
3744 4 
3793 1 
3794 2 
3795 1 
3796 1 
3797 2 
3798 1 
3799 1 
3800 2 
3801 1 
3802 1 
3803 2 
3804 1 
3853 1 
3854 2 
3855 1 
3856 4 
3857 3 
3858 4 
3859 1 
3860 2 
3861 1 
3862 4 
3863 3 
3864 4 
4513 4 
4514 3 
4515 4 
4516 4 
4517 3 
4518 4 
4519 1 
4520 2 
4521 1 
4522 4 
4523 3 
4524 4 
4573 1 
4574 2 
4575 1 
4576 1 
4577 2 
4578 1 
4579 1 
4580 2 
4581 1 
4582 4 
4583 3 
4584 4 
4633 4 
4634 3 
4635 4 
4636 1 
4637 2 
4638 1 
4639 1 
4640 2 
4641 1 
4642 4 
4643 3 
4644 4 
4693 4 
4694 3 
4695 4 
4696 1 
4697 2 
4698 1 
4699 4 
4700 3 
4701 4 
4702 1 
4703 2 
4704 1 
4753 1 
4754 2 
4755 1 
4756 4 
4757 3 
4758 4 
4759 1 
4760 2 
4761 1 
4762 1 
4763 2 
4764 1 
4813 4 
4814 3 
4815 4 
4816 1 
4817 2 
4818 1 
4819 4 
4820 3 
4821 4 
4822 1 
4823 2 
4824 1 
4873 1 
4874 2 
4875 1 
4876 1 
4877 2 
4878 1 
4879 4 
4880 3 
4881 4 
4882 1 
4883 2 
4884 1 
4933 1 
4934 2 
4935 1 
4936 4 
4937 3 
4938 4 
4939 4 
4940 3 
4941 4 
4942 4 
4943 3 
4944 4 
4993 4 
4994 3 
4995 4 
4996 1 
4997 2 
4998 1 
4999 4 
5000 3 
5001 4 
5002 4 
5003 3 
5004 4 
5653 1 
5654 2 
5655 1 
5656 1 
5657 2 
5658 1 
5659 4 
5660 3 
5661 4 
5662 1 
5663 2 
5664 1 
5713 1 
5714 2 
5715 1 
5716 4 
5717 3 
5718 4 
5719 1 
5720 2 
5721 1 
5722 1 
5723 2 
5724 1 
5773 4 
5774 3 
5775 4 
5776 1 
5777 2 
5778 1 
5779 4 
5780 3 
5781 4 
5782 4 
5783 3 
5784 4 
5833 4 
5834 3 
5835 4 
5836 4 
5837 3 
5838 4 
5839 4 
5840 3 
5841 4 
5842 4 
5843 3 
5844 4 
5893 1 
5894 2 
5895 1 
5896 1 
5897 2 
5898 1 
5899 1 
5900 2 
5901 1 
5902 4 
5903 3 
5904 4 
5953 1 
5954 2 
5955 1 
5956 1 
5957 2 
5958 1 
5959 1 
5960 2 
5961 1 
5962 4 
5963 3 
5964 4 
6013 1 
6014 2 
6015 1 
6016 1 
6017 2 
6018 1 
6019 1 
6020 2 
6021 1 
6022 1 
6023 2 
6024 1 
6613 1 
6614 2 
6615 1 
6616 4 
6617 3 
6618 4 
6619 1 
6620 2 
6621 1 
6622 4 
6623 3 
6624 4 
6673 4 
6674 3 
6675 4 
6676 1 
6677 2 
6678 1 
6679 4 
6680 3 
6681 4 
6682 1 
6683 2 
6684 1 
6733 4 
6734 3 
6735 4 
6736 1 
6737 2 
6738 1 
6739 4 
6740 3 
6741 4 
6742 1 
6743 2 
6744 1 
6793 4 
6794 3 
6795 4 
6796 4 
6797 3 
6798 4 
6799 1 
6800 2 
6801 1 
6802 4 
6803 3 
6804 4 
6853 1 
6854 2 
6855 1 
6856 4 
6857 3 
6858 4 
6859 1 
6860 2 
6861 1 
6862 4 
6863 3 
6864 4 
6913 4 
6914 3 
6915 4 
6916 1 
6917 2 
6918 1 
6919 4 
6920 3 
6921 4 
6922 4 
6923 3 
6924 4 
6973 4 
6974 3 
6975 4 
6976 4 
6977 3 
6978 4 
6979 4 
6980 3 
6981 4 
6982 4 
6983 3 
6984 4 
7033 1 
7034 2 
7035 1 
7036 4 
7037 3 
7038 4 
7039 1 
7040 2 
7041 1 
7042 1 
7043 2 
7044 1 
7093 4 
7094 3 
7095 4 
7096 1 
7097 2 
7098 1 
7099 1 
7100 2 
7101 1 
7102 4 
7103 3 
7104 4 
7153 1 
7154 2 
7155 1 
7156 1 
7157 2 
7158 1 
7159 1 
7160 2 
7161 1 
7162 4 
7163 3 
7164 4 
7813 4 
7814 3 
7815 4 
7816 4 
7817 3 
7818 4 
7819 1 
7820 2 
7821 1 
7822 1 
7823 2 
7824 1 
7873 4 
7874 3 
7875 4 
7876 1 
7877 2 
7878 1 
7879 4 
7880 3 
7881 4 
7882 1 
7883 2 
7884 1 
7933 4 
7934 3 
7935 4 
7936 4 
7937 3 
7938 4 
7939 1 
7940 2 
7941 1 
7942 1 
7943 2 
7944 1 
7993 1 
7994 2 
7995 1 
7996 1 
7997 2 
7998 1 
7999 1 
8000 2 
8001 1 
8002 1 
8003 2 
8004 1 
8053 4 
8054 3 
8055 4 
8056 1 
8057 2 
8058 1 
8059 4 
8060 3 
8061 4 
8062 4 
8063 3 
8064 4 
8113 4 
8114 3 
8115 4 
8116 4 
8117 3 
8118 4 
8119 1 
8120 2 
8121 1 
8122 1 
8123 2 
8124 1 
8173 1 
8174 2 
8175 1 
8176 4 
8177 3 
8178 4 
8179 4 
8180 3 
8181 4 
8182 1 
8183 2 
8184 1 
8233 4 
8234 3 
8235 4 
8236 4 
8237 3 
8238 4 
8239 4 
8240 3 
8241 4 
8242 4 
8243 3 
8244 4 
8293 4 
8294 3 
8295 4 
8296 4 
8297 3 
8298 4 
8299 1 
8300 2 
8301 1 
8302 4 
8303 3 
8304 4 
8353 4 
8354 3 
8355 4 
8356 1 
8357 2 
8358 1 
8359 1 
8360 2 
8361 1 
8362 4 
8363 3 
8364 4 
9013 1 
9014 2 
9015 1 
9016 4 
9017 3 
9018 4 
9019 1 
9020 2 
9021 1 
9022 1 
9023 2 
9024 1 
9073 4 
9074 3 
9075 4 
9076 1 
9077 2 
9078 1 
9079 1 
9080 2 
9081 1 
9082 1 
9083 2 
9084 1 
9133 1 
9134 2 
9135 1 
9136 1 
9137 2 
9138 1 
9139 4 
9140 3 
9141 4 
9142 4 
9143 3 
9144 4 
9193 1 
9194 2 
9195 1 
9196 1 
9197 2 
9198 1 
9199 4 
9200 3 
9201 4 
9202 1 
9203 2 
9204 1 
9253 4 
9254 3 
9255 4 
9256 1 
9257 2 
9258 1 
9259 1 
9260 2 
9261 1 
9262 4 
9263 3 
9264 4 
9313 1 
9314 2 
9315 1 
9316 1 
9317 2 
9318 1 
9319 1 
9320 2 
9321 1 
9322 1 
9323 2 
9324 1 
9373 4 
9374 3 
9375 4 
9376 1 
9377 2 
9378 1 
9379 4 
9380 3 
9381 4 
9382 1 
9383 2 
9384 1 
9433 4 
9434 3 
9435 4 
9436 4 
9437 3 
9438 4 
9439 4 
9440 3 
9441 4 
9442 4 
9443 3 
9444 4 
10093 4 
10094 3 
10095 4 
10096 1 
10097 2 
10098 1 
10099 1 
10100 2 
10101 1 
10102 1 
10103 2 
10104 1 
10153 1 
10154 2 
10155 1 
10156 4 
10157 3 
10158 4 
10159 1 
10160 2 
10161 1 
10162 4 
10163 3 
10164 4 
10213 1 
10214 2 
10215 1 
10216 4 
10217 3 
10218 4 
10219 1 
10220 2 
10221 1 
10222 1 
10223 2 
10224 1 
10273 1 
10274 2 
10275 1 
10276 4 
10277 3 
10278 4 
10279 4 
10280 3 
10281 4 
10282 4 
10283 3 
10284 4 
10333 4 
10334 3 
10335 4 
10336 1 
10337 2 
10338 1 
10339 1 
10340 2 
10341 1 
10342 1 
10343 2 
10344 1 
10393 1 
10394 2 
10395 1 
10396 1 
10397 2 
10398 1 
10399 4 
10400 3 
10401 4 
10402 4 
10403 3 
10404 4 
10453 4 
10454 3 
10455 4 
10456 4 
10457 3 
10458 4 
10459 4 
10460 3 
10461 4 
10462 4 
10463 3 
10464 4 
10513 1 
10514 2 
10515 1 
10516 4 
10517 3 
10518 4 
10519 1 
10520 2 
10521 1 
10522 4 
10523 3 
10524 4 
10573 4 
10574 3 
10575 4 
10576 1 
10577 2 
10578 1 
10579 1 
10580 2 
10581 1 
10582 1 
10583 2 
10584 1 
25 4 
26 3 
27 4 
28 1 
29 2 
30 1 
31 1 
32 2 
33 1 
34 1 
35 2 
36 1 
85 1 
86 2 
87 1 
88 1 
89 2 
90 1 
91 4 
92 3 
93 4 
94 4 
95 3 
96 4 
145 1 
146 2 
147 1 
148 1 
149 2 
150 1 
151 4 
152 3 
153 4 
154 4 
155 3 
156 4 
205 1 
206 2 
207 1 
208 4 
209 3 
210 4 
211 1 
212 2 
213 1 
214 1 
215 2 
216 1 
265 4 
266 3 
267 4 
268 4 
269 3 
270 4 
271 1 
272 2 
273 1 
274 1 
275 2 
276 1 
325 1 
326 2 
327 1 
328 1 
329 2 
330 1 
331 1 
332 2 
333 1 
334 4 
335 3 
336 4 
385 4 
386 3 
387 4 
388 4 
389 3 
390 4 
391 1 
392 2 
393 1 
394 4 
395 3 
396 4 
445 1 
446 2 
447 1 
448 1 
449 2 
450 1 
451 4 
452 3 
453 4 
454 1 
455 2 
456 1 
1045 4 
1046 3 
1047 4 
1048 1 
1049 2 
1050 1 
1051 4 
1052 3 
1053 4 
1054 4 
1055 3 
1056 4 
1105 4 
1106 3 
1107 4 
1108 4 
1109 3 
1110 4 
1111 4 
1112 3 
1113 4 
1114 1 
1115 2 
1116 1 
1165 1 
1166 2 
1167 1 
1168 1 
1169 2 
1170 1 
1171 1 
1172 2 
1173 1 
1174 4 
1175 3 
1176 4 
1225 4 
1226 3 
1227 4 
1228 4 
1229 3 
1230 4 
1231 1 
1232 2 
1233 1 
1234 4 
1235 3 
1236 4 
1285 1 
1286 2 
1287 1 
1288 4 
1289 3 
1290 4 
1291 4 
1292 3 
1293 4 
1294 1 
1295 2 
1296 1 
1345 4 
1346 3 
1347 4 
1348 4 
1349 3 
1350 4 
1351 4 
1352 3 
1353 4 
1354 4 
1355 3 
1356 4 
1405 1 
1406 2 
1407 1 
1408 1 
1409 2 
1410 1 
1411 1 
1412 2 
1413 1 
1414 4 
1415 3 
1416 4 
1465 1 
1466 2 
1467 1 
1468 1 
1469 2 
1470 1 
1471 1 
1472 2 
1473 1 
1474 1 
1475 2 
1476 1 
1525 4 
1526 3 
1527 4 
1528 4 
1529 3 
1530 4 
1531 1 
1532 2 
1533 1 
1534 4 
1535 3 
1536 4 
1585 4 
1586 3 
1587 4 
1588 1 
1589 2 
1590 1 
1591 1 
1592 2 
1593 1 
1594 1 
1595 2 
1596 1 
2185 4 
2186 3 
2187 4 
2188 4 
2189 3 
2190 4 
2191 1 
2192 2 
2193 1 
2194 1 
2195 2 
2196 1 
2245 1 
2246 2 
2247 1 
2248 4 
2249 3 
2250 4 
2251 4 
2252 3 
2253 4 
2254 4 
2255 3 
2256 4 
2305 4 
2306 3 
2307 4 
2308 4 
2309 3 
2310 4 
2311 4 
2312 3 
2313 4 
2314 1 
2315 2 
2316 1 
2365 4 
2366 3 
2367 4 
2368 4 
2369 3 
2370 4 
2371 1 
2372 2 
2373 1 
2374 1 
2375 2 
2376 1 
2425 1 
2426 2 
2427 1 
2428 4 
2429 3 
2430 4 
2431 4 
2432 3 
2433 4 
2434 4 
2435 3 
2436 4 
2485 1 
2486 2 
2487 1 
2488 4 
2489 3 
2490 4 
2491 4 
2492 3 
2493 4 
2494 4 
2495 3 
2496 4 
2545 4 
2546 3 
2547 4 
2548 1 
2549 2 
2550 1 
2551 1 
2552 2 
2553 1 
2554 1 
2555 2 
2556 1 
2605 4 
2606 3 
2607 4 
2608 4 
2609 3 
2610 4 
2611 4 
2612 3 
2613 4 
2614 1 
2615 2 
2616 1 
2665 4 
2666 3 
2667 4 
2668 4 
2669 3 
2670 4 
2671 4 
2672 3 
2673 4 
2674 1 
2675 2 
2676 1 
3325 1 
3326 2 
3327 1 
3328 4 
3329 3 
3330 4 
3331 4 
3332 3 
3333 4 
3334 4 
3335 3 
3336 4 
3385 1 
3386 2 
3387 1 
3388 4 
3389 3 
3390 4 
3391 4 
3392 3 
3393 4 
3394 4 
3395 3 
3396 4 
3445 4 
3446 3 
3447 4 
3448 1 
3449 2 
3450 1 
3451 1 
3452 2 
3453 1 
3454 1 
3455 2 
3456 1 
3505 1 
3506 2 
3507 1 
3508 1 
3509 2 
3510 1 
3511 4 
3512 3 
3513 4 
3514 4 
3515 3 
3516 4 
3565 1 
3566 2 
3567 1 
3568 4 
3569 3 
3570 4 
3571 1 
3572 2 
3573 1 
3574 1 
3575 2 
3576 1 
3625 4 
3626 3 
3627 4 
3628 4 
3629 3 
3630 4 
3631 4 
3632 3 
3633 4 
3634 4 
3635 3 
3636 4 
3685 1 
3686 2 
3687 1 
3688 4 
3689 3 
3690 4 
3691 4 
3692 3 
3693 4 
3694 4 
3695 3 
3696 4 
3745 4 
3746 3 
3747 4 
3748 1 
3749 2 
3750 1 
3751 4 
3752 3 
3753 4 
3754 1 
3755 2 
3756 1 
3805 4 
3806 3 
3807 4 
3808 1 
3809 2 
3810 1 
3811 1 
3812 2 
3813 1 
3814 4 
3815 3 
3816 4 
3865 4 
3866 3 
3867 4 
3868 1 
3869 2 
3870 1 
3871 1 
3872 2 
3873 1 
3874 4 
3875 3 
3876 4 
4525 1 
4526 2 
4527 1 
4528 4 
4529 3 
4530 4 
4531 1 
4532 2 
4533 1 
4534 4 
4535 3 
4536 4 
4585 4 
4586 3 
4587 4 
4588 4 
4589 3 
4590 4 
4591 4 
4592 3 
4593 4 
4594 1 
4595 2 
4596 1 
4645 4 
4646 3 
4647 4 
4648 4 
4649 3 
4650 4 
4651 1 
4652 2 
4653 1 
4654 1 
4655 2 
4656 1 
4705 1 
4706 2 
4707 1 
4708 1 
4709 2 
4710 1 
4711 4 
4712 3 
4713 4 
4714 4 
4715 3 
4716 4 
4765 4 
4766 3 
4767 4 
4768 4 
4769 3 
4770 4 
4771 4 
4772 3 
4773 4 
4774 1 
4775 2 
4776 1 
4825 1 
4826 2 
4827 1 
4828 4 
4829 3 
4830 4 
4831 4 
4832 3 
4833 4 
4834 1 
4835 2 
4836 1 
4885 1 
4886 2 
4887 1 
4888 1 
4889 2 
4890 1 
4891 1 
4892 2 
4893 1 
4894 4 
4895 3 
4896 4 
4945 1 
4946 2 
4947 1 
4948 4 
4949 3 
4950 4 
4951 1 
4952 2 
4953 1 
4954 1 
4955 2 
4956 1 
5005 4 
5006 3 
5007 4 
5008 1 
5009 2 
5010 1 
5011 1 
5012 2 
5013 1 
5014 4 
5015 3 
5016 4 
5665 4 
5666 3 
5667 4 
5668 1 
5669 2 
5670 1 
5671 4 
5672 3 
5673 4 
5674 1 
5675 2 
5676 1 
5725 1 
5726 2 
5727 1 
5728 1 
5729 2 
5730 1 
5731 4 
5732 3 
5733 4 
5734 1 
5735 2 
5736 1 
5785 4 
5786 3 
5787 4 
5788 1 
5789 2 
5790 1 
5791 1 
5792 2 
5793 1 
5794 1 
5795 2 
5796 1 
5845 4 
5846 3 
5847 4 
5848 4 
5849 3 
5850 4 
5851 4 
5852 3 
5853 4 
5854 4 
5855 3 
5856 4 
5905 1 
5906 2 
5907 1 
5908 1 
5909 2 
5910 1 
5911 4 
5912 3 
5913 4 
5914 1 
5915 2 
5916 1 
5965 1 
5966 2 
5967 1 
5968 1 
5969 2 
5970 1 
5971 1 
5972 2 
5973 1 
5974 1 
5975 2 
5976 1 
6025 4 
6026 3 
6027 4 
6028 1 
6029 2 
6030 1 
6031 4 
6032 3 
6033 4 
6034 1 
6035 2 
6036 1 
6625 1 
6626 2 
6627 1 
6628 1 
6629 2 
6630 1 
6631 1 
6632 2 
6633 1 
6634 4 
6635 3 
6636 4 
6685 1 
6686 2 
6687 1 
6688 4 
6689 3 
6690 4 
6691 1 
6692 2 
6693 1 
6694 1 
6695 2 
6696 1 
6745 4 
6746 3 
6747 4 
6748 1 
6749 2 
6750 1 
6751 1 
6752 2 
6753 1 
6754 4 
6755 3 
6756 4 
6805 1 
6806 2 
6807 1 
6808 1 
6809 2 
6810 1 
6811 1 
6812 2 
6813 1 
6814 1 
6815 2 
6816 1 
6865 1 
6866 2 
6867 1 
6868 4 
6869 3 
6870 4 
6871 4 
6872 3 
6873 4 
6874 1 
6875 2 
6876 1 
6925 4 
6926 3 
6927 4 
6928 4 
6929 3 
6930 4 
6931 1 
6932 2 
6933 1 
6934 1 
6935 2 
6936 1 
6985 4 
6986 3 
6987 4 
6988 1 
6989 2 
6990 1 
6991 4 
6992 3 
6993 4 
6994 4 
6995 3 
6996 4 
7045 4 
7046 3 
7047 4 
7048 1 
7049 2 
7050 1 
7051 1 
7052 2 
7053 1 
7054 4 
7055 3 
7056 4 
7105 4 
7106 3 
7107 4 
7108 4 
7109 3 
7110 4 
7111 1 
7112 2 
7113 1 
7114 4 
7115 3 
7116 4 
7165 4 
7166 3 
7167 4 
7168 1 
7169 2 
7170 1 
7171 1 
7172 2 
7173 1 
7174 4 
7175 3 
7176 4 
7825 4 
7826 3 
7827 4 
7828 1 
7829 2 
7830 1 
7831 1 
7832 2 
7833 1 
7834 1 
7835 2 
7836 1 
7885 1 
7886 2 
7887 1 
7888 4 
7889 3 
7890 4 
7891 1 
7892 2 
7893 1 
7894 4 
7895 3 
7896 4 
7945 4 
7946 3 
7947 4 
7948 1 
7949 2 
7950 1 
7951 1 
7952 2 
7953 1 
7954 4 
7955 3 
7956 4 
8005 1 
8006 2 
8007 1 
8008 1 
8009 2 
8010 1 
8011 1 
8012 2 
8013 1 
8014 4 
8015 3 
8016 4 
8065 4 
8066 3 
8067 4 
8068 4 
8069 3 
8070 4 
8071 4 
8072 3 
8073 4 
8074 1 
8075 2 
8076 1 
8125 1 
8126 2 
8127 1 
8128 4 
8129 3 
8130 4 
8131 4 
8132 3 
8133 4 
8134 1 
8135 2 
8136 1 
8185 1 
8186 2 
8187 1 
8188 4 
8189 3 
8190 4 
8191 4 
8192 3 
8193 4 
8194 1 
8195 2 
8196 1 
8245 1 
8246 2 
8247 1 
8248 4 
8249 3 
8250 4 
8251 1 
8252 2 
8253 1 
8254 1 
8255 2 
8256 1 
8305 1 
8306 2 
8307 1 
8308 4 
8309 3 
8310 4 
8311 1 
8312 2 
8313 1 
8314 4 
8315 3 
8316 4 
8365 1 
8366 2 
8367 1 
8368 4 
8369 3 
8370 4 
8371 4 
8372 3 
8373 4 
8374 1 
8375 2 
8376 1 
9025 4 
9026 3 
9027 4 
9028 4 
9029 3 
9030 4 
9031 1 
9032 2 
9033 1 
9034 1 
9035 2 
9036 1 
9085 4 
9086 3 
9087 4 
9088 4 
9089 3 
9090 4 
9091 4 
9092 3 
9093 4 
9094 1 
9095 2 
9096 1 
9145 1 
9146 2 
9147 1 
9148 1 
9149 2 
9150 1 
9151 1 
9152 2 
9153 1 
9154 4 
9155 3 
9156 4 
9205 4 
9206 3 
9207 4 
9208 1 
9209 2 
9210 1 
9211 4 
9212 3 
9213 4 
9214 1 
9215 2 
9216 1 
9265 1 
9266 2 
9267 1 
9268 4 
9269 3 
9270 4 
9271 1 
9272 2 
9273 1 
9274 4 
9275 3 
9276 4 
9325 4 
9326 3 
9327 4 
9328 1 
9329 2 
9330 1 
9331 4 
9332 3 
9333 4 
9334 4 
9335 3 
9336 4 
9385 4 
9386 3 
9387 4 
9388 4 
9389 3 
9390 4 
9391 1 
9392 2 
9393 1 
9394 1 
9395 2 
9396 1 
9445 1 
9446 2 
9447 1 
9448 1 
9449 2 
9450 1 
9451 4 
9452 3 
9453 4 
9454 4 
9455 3 
9456 4 
10105 1 
10106 2 
10107 1 
10108 1 
10109 2 
10110 1 
10111 4 
10112 3 
10113 4 
10114 1 
10115 2 
10116 1 
10165 1 
10166 2 
10167 1 
10168 4 
10169 3 
10170 4 
10171 4 
10172 3 
10173 4 
10174 4 
10175 3 
10176 4 
10225 4 
10226 3 
10227 4 
10228 1 
10229 2 
10230 1 
10231 4 
10232 3 
10233 4 
10234 4 
10235 3 
10236 4 
10285 1 
10286 2 
10287 1 
10288 1 
10289 2 
10290 1 
10291 4 
10292 3 
10293 4 
10294 1 
10295 2 
10296 1 
10345 1 
10346 2 
10347 1 
10348 4 
10349 3 
10350 4 
10351 4 
10352 3 
10353 4 
10354 4 
10355 3 
10356 4 
10405 4 
10406 3 
10407 4 
10408 1 
10409 2 
10410 1 
10411 4 
10412 3 
10413 4 
10414 4 
10415 3 
10416 4 
10465 1 
10466 2 
10467 1 
10468 1 
10469 2 
10470 1 
10471 4 
10472 3 
10473 4 
10474 1 
10475 2 
10476 1 
10525 4 
10526 3 
10527 4 
10528 1 
10529 2 
10530 1 
10531 4 
10532 3 
10533 4 
10534 1 
10535 2 
10536 1 
10585 4 
10586 3 
10587 4 
10588 4 
10589 3 
10590 4 
10591 4 
10592 3 
10593 4 
10594 4 
10595 3 
10596 4 
37 1 
38 2 
39 1 
40 1 
41 2 
42 1 
43 4 
44 3 
45 4 
46 1 
47 2 
48 1 
97 4 
98 3 
99 4 
100 4 
101 3 
102 4 
103 4 
104 3 
105 4 
106 1 
107 2 
108 1 
157 1 
158 2 
159 1 
160 1 
161 2 
162 1 
163 1 
164 2 
165 1 
166 4 
167 3 
168 4 
217 1 
218 2 
219 1 
220 4 
221 3 
222 4 
223 1 
224 2 
225 1 
226 1 
227 2 
228 1 
277 1 
278 2 
279 1 
280 1 
281 2 
282 1 
283 4 
284 3 
285 4 
286 4 
287 3 
288 4 
337 1 
338 2 
339 1 
340 1 
341 2 
342 1 
343 1 
344 2 
345 1 
346 4 
347 3 
348 4 
397 1 
398 2 
399 1 
400 1 
401 2 
402 1 
403 1 
404 2 
405 1 
406 1 
407 2 
408 1 
457 1 
458 2 
459 1 
460 1 
461 2 
462 1 
463 1 
464 2 
465 1 
466 4 
467 3 
468 4 
1057 4 
1058 3 
1059 4 
1060 4 
1061 3 
1062 4 
1063 4 
1064 3 
1065 4 
1066 4 
1067 3 
1068 4 
1117 4 
1118 3 
1119 4 
1120 1 
1121 2 
1122 1 
1123 4 
1124 3 
1125 4 
1126 4 
1127 3 
1128 4 
1177 1 
1178 2 
1179 1 
1180 1 
1181 2 
1182 1 
1183 1 
1184 2 
1185 1 
1186 4 
1187 3 
1188 4 
1237 4 
1238 3 
1239 4 
1240 1 
1241 2 
1242 1 
1243 1 
1244 2 
1245 1 
1246 4 
1247 3 
1248 4 
1297 1 
1298 2 
1299 1 
1300 4 
1301 3 
1302 4 
1303 1 
1304 2 
1305 1 
1306 1 
1307 2 
1308 1 
1357 1 
1358 2 
1359 1 
1360 4 
1361 3 
1362 4 
1363 4 
1364 3 
1365 4 
1366 1 
1367 2 
1368 1 
1417 4 
1418 3 
1419 4 
1420 4 
1421 3 
1422 4 
1423 4 
1424 3 
1425 4 
1426 1 
1427 2 
1428 1 
1477 1 
1478 2 
1479 1 
1480 1 
1481 2 
1482 1 
1483 1 
1484 2 
1485 1 
1486 4 
1487 3 
1488 4 
1537 1 
1538 2 
1539 1 
1540 4 
1541 3 
1542 4 
1543 4 
1544 3 
1545 4 
1546 4 
1547 3 
1548 4 
1597 1 
1598 2 
1599 1 
1600 4 
1601 3 
1602 4 
1603 4 
1604 3 
1605 4 
1606 1 
1607 2 
1608 1 
2197 4 
2198 3 
2199 4 
2200 1 
2201 2 
2202 1 
2203 4 
2204 3 
2205 4 
2206 1 
2207 2 
2208 1 
2257 1 
2258 2 
2259 1 
2260 1 
2261 2 
2262 1 
2263 1 
2264 2 
2265 1 
2266 4 
2267 3 
2268 4 
2317 4 
2318 3 
2319 4 
2320 1 
2321 2 
2322 1 
2323 4 
2324 3 
2325 4 
2326 1 
2327 2 
2328 1 
2377 1 
2378 2 
2379 1 
2380 4 
2381 3 
2382 4 
2383 4 
2384 3 
2385 4 
2386 1 
2387 2 
2388 1 
2437 4 
2438 3 
2439 4 
2440 1 
2441 2 
2442 1 
2443 1 
2444 2 
2445 1 
2446 4 
2447 3 
2448 4 
2497 1 
2498 2 
2499 1 
2500 1 
2501 2 
2502 1 
2503 4 
2504 3 
2505 4 
2506 1 
2507 2 
2508 1 
2557 1 
2558 2 
2559 1 
2560 1 
2561 2 
2562 1 
2563 1 
2564 2 
2565 1 
2566 4 
2567 3 
2568 4 
2617 4 
2618 3 
2619 4 
2620 1 
2621 2 
2622 1 
2623 1 
2624 2 
2625 1 
2626 4 
2627 3 
2628 4 
2677 4 
2678 3 
2679 4 
2680 1 
2681 2 
2682 1 
2683 4 
2684 3 
2685 4 
2686 1 
2687 2 
2688 1 
3337 1 
3338 2 
3339 1 
3340 4 
3341 3 
3342 4 
3343 1 
3344 2 
3345 1 
3346 1 
3347 2 
3348 1 
3397 4 
3398 3 
3399 4 
3400 4 
3401 3 
3402 4 
3403 1 
3404 2 
3405 1 
3406 4 
3407 3 
3408 4 
3457 4 
3458 3 
3459 4 
3460 4 
3461 3 
3462 4 
3463 4 
3464 3 
3465 4 
3466 1 
3467 2 
3468 1 
3517 4 
3518 3 
3519 4 
3520 1 
3521 2 
3522 1 
3523 1 
3524 2 
3525 1 
3526 1 
3527 2 
3528 1 
3577 4 
3578 3 
3579 4 
3580 4 
3581 3 
3582 4 
3583 1 
3584 2 
3585 1 
3586 4 
3587 3 
3588 4 
3637 1 
3638 2 
3639 1 
3640 1 
3641 2 
3642 1 
3643 1 
3644 2 
3645 1 
3646 4 
3647 3 
3648 4 
3697 4 
3698 3 
3699 4 
3700 4 
3701 3 
3702 4 
3703 4 
3704 3 
3705 4 
3706 1 
3707 2 
3708 1 
3757 4 
3758 3 
3759 4 
3760 4 
3761 3 
3762 4 
3763 4 
3764 3 
3765 4 
3766 1 
3767 2 
3768 1 
3817 1 
3818 2 
3819 1 
3820 1 
3821 2 
3822 1 
3823 4 
3824 3 
3825 4 
3826 4 
3827 3 
3828 4 
3877 4 
3878 3 
3879 4 
3880 4 
3881 3 
3882 4 
3883 1 
3884 2 
3885 1 
3886 1 
3887 2 
3888 1 
4537 1 
4538 2 
4539 1 
4540 4 
4541 3 
4542 4 
4543 1 
4544 2 
4545 1 
4546 1 
4547 2 
4548 1 
4597 4 
4598 3 
4599 4 
4600 1 
4601 2 
4602 1 
4603 1 
4604 2 
4605 1 
4606 1 
4607 2 
4608 1 
4657 1 
4658 2 
4659 1 
4660 4 
4661 3 
4662 4 
4663 1 
4664 2 
4665 1 
4666 1 
4667 2 
4668 1 
4717 4 
4718 3 
4719 4 
4720 4 
4721 3 
4722 4 
4723 1 
4724 2 
4725 1 
4726 1 
4727 2 
4728 1 
4777 1 
4778 2 
4779 1 
4780 1 
4781 2 
4782 1 
4783 1 
4784 2 