Generated by dataPrep.py

21600 atoms
6 atom types
14400 bonds
3 bond types
7200 angles
3 angle types
2 extra bond per atom
1 extra angle per atom
12 extra special per atom

0 50.0 xlo xhi
0 50.0 ylo yhi
0 50.0 zlo zhi

Atoms

1 0 4 1.25 1.25 0.1
2 0 3 1.25 1.25 0.5
3 0 4 1.25 1.25 0.9
4 0 1 1.25 1.25 2.6
5 0 2 1.25 1.25 3
6 0 1 1.25 1.25 3.4
7 0 4 1.25 1.25 5.1
8 0 3 1.25 1.25 5.5
9 0 4 1.25 1.25 5.9
10 0 4 1.25 1.25 7.6
11 0 3 1.25 1.25 8
12 0 4 1.25 1.25 8.4
13 0 1 1.25 1.25 10.1
14 0 2 1.25 1.25 10.5
15 0 1 1.25 1.25 10.9
16 0 4 1.25 1.25 12.6
17 0 3 1.25 1.25 13
18 0 4 1.25 1.25 13.4
19 0 4 1.25 1.25 15.1
20 0 3 1.25 1.25 15.5
21 0 4 1.25 1.25 15.9
22 0 1 1.25 1.25 17.6
23 0 2 1.25 1.25 18
24 0 1 1.25 1.25 18.4
25 0 4 1.25 1.25 20.1
26 0 3 1.25 1.25 20.5
27 0 4 1.25 1.25 20.9
28 0 1 1.25 1.25 22.6
29 0 2 1.25 1.25 23
30 0 1 1.25 1.25 23.4
31 0 1 1.25 1.25 25.1
32 0 2 1.25 1.25 25.5
33 0 1 1.25 1.25 25.9
34 0 1 1.25 1.25 27.6
35 0 2 1.25 1.25 28
36 0 1 1.25 1.25 28.4
37 0 1 1.25 1.25 30.1
38 0 2 1.25 1.25 30.5
39 0 1 1.25 1.25 30.9
40 0 1 1.25 1.25 32.6
41 0 2 1.25 1.25 33
42 0 1 1.25 1.25 33.4
43 0 4 1.25 1.25 35.1
44 0 3 1.25 1.25 35.5
45 0 4 1.25 1.25 35.9
46 0 1 1.25 1.25 37.6
47 0 2 1.25 1.25 38
48 0 1 1.25 1.25 38.4
49 0 1 1.25 1.25 40.1
50 0 2 1.25 1.25 40.5
51 0 1 1.25 1.25 40.9
52 0 1 1.25 1.25 42.6
53 0 2 1.25 1.25 43
54 0 1 1.25 1.25 43.4
55 0 4 1.25 1.25 45.1
56 0 3 1.25 1.25 45.5
57 0 4 1.25 1.25 45.9
58 0 4 1.25 1.25 47.6
59 0 3 1.25 1.25 48
60 0 4 1.25 1.25 48.4
61 0 4 1.25 3.75 0.1
62 0 3 1.25 3.75 0.5
63 0 4 1.25 3.75 0.9
64 0 4 1.25 3.75 2.6
65 0 3 1.25 3.75 3
66 0 4 1.25 3.75 3.4
67 0 1 1.25 3.75 5.1
68 0 2 1.25 3.75 5.5
69 0 1 1.25 3.75 5.9
70 0 1 1.25 3.75 7.6
71 0 2 1.25 3.75 8
72 0 1 1.25 3.75 8.4
73 0 4 1.25 3.75 10.1
74 0 3 1.25 3.75 10.5
75 0 4 1.25 3.75 10.9
76 0 4 1.25 3.75 12.6
77 0 3 1.25 3.75 13
78 0 4 1.25 3.75 13.4
79 0 4 1.25 3.75 15.1
80 0 3 1.25 3.75 15.5
81 0 4 1.25 3.75 15.9
82 0 4 1.25 3.75 17.6
83 0 3 1.25 3.75 18
84 0 4 1.25 3.75 18.4
85 0 1 1.25 3.75 20.1
86 0 2 1.25 3.75 20.5
87 0 1 1.25 3.75 20.9
88 0 1 1.25 3.75 22.6
89 0 2 1.25 3.75 23
90 0 1 1.25 3.75 23.4
91 0 4 1.25 3.75 25.1
92 0 3 1.25 3.75 25.5
93 0 4 1.25 3.75 25.9
94 0 4 1.25 3.75 27.6
95 0 3 1.25 3.75 28
96 0 4 1.25 3.75 28.4
97 0 4 1.25 3.75 30.1
98 0 3 1.25 3.75 30.5
99 0 4 1.25 3.75 30.9
100 0 4 1.25 3.75 32.6
101 0 3 1.25 3.75 33
102 0 4 1.25 3.75 33.4
103 0 4 1.25 3.75 35.1
104 0 3 1.25 3.75 35.5
105 0 4 1.25 3.75 35.9
106 0 1 1.25 3.75 37.6
107 0 2 1.25 3.75 38
108 0 1 1.25 3.75 38.4
109 0 4 1.25 3.75 40.1
110 0 3 1.25 3.75 40.5
111 0 4 1.25 3.75 40.9
112 0 4 1.25 3.75 42.6
113 0 3 1.25 3.75 43
114 0 4 1.25 3.75 43.4
115 0 4 1.25 3.75 45.1
116 0 3 1.25 3.75 45.5
117 0 4 1.25 3.75 45.9
118 0 4 1.25 3.75 47.6
119 0 3 1.25 3.75 48
120 0 4 1.25 3.75 48.4
121 0 1 1.25 6.25 0.1
122 0 2 1.25 6.25 0.5
123 0 1 1.25 6.25 0.9
124 0 4 1.25 6.25 2.6
125 0 3 1.25 6.25 3
126 0 4 1.25 6.25 3.4
127 0 1 1.25 6.25 5.1
128 0 2 1.25 6.25 5.5
129 0 1 1.25 6.25 5.9
130 0 4 1.25 6.25 7.6
131 0 3 1.25 6.25 8
132 0 4 1.25 6.25 8.4
133 0 1 1.25 6.25 10.1
134 0 2 1.25 6.25 10.5
135 0 1 1.25 6.25 10.9
136 0 4 1.25 6.25 12.6
137 0 3 1.25 6.25 13
138 0 4 1.25 6.25 13.4
139 0 4 1.25 6.25 15.1
140 0 3 1.25 6.25 15.5
141 0 4 1.25 6.25 15.9
142 0 4 1.25 6.25 17.6
143 0 3 1.25 6.25 18
144 0 4 1.25 6.25 18.4
145 0 1 1.25 6.25 20.1
146 0 2 1.25 6.25 20.5
147 0 1 1.25 6.25 20.9
148 0 1 1.25 6.25 22.6
149 0 2 1.25 6.25 23
150 0 1 1.25 6.25 23.4
151 0 4 1.25 6.25 25.1
152 0 3 1.25 6.25 25.5
153 0 4 1.25 6.25 25.9
154 0 4 1.25 6.25 27.6
155 0 3 1.25 6.25 28
156 0 4 1.25 6.25 28.4
157 0 1 1.25 6.25 30.1
158 0 2 1.25 6.25 30.5
159 0 1 1.25 6.25 30.9
160 0 1 1.25 6.25 32.6
161 0 2 1.25 6.25 33
162 0 1 1.25 6.25 33.4
163 0 1 1.25 6.25 35.1
164 0 2 1.25 6.25 35.5
165 0 1 1.25 6.25 35.9
166 0 4 1.25 6.25 37.6
167 0 3 1.25 6.25 38
168 0 4 1.25 6.25 38.4
169 0 4 1.25 6.25 40.1
170 0 3 1.25 6.25 40.5
171 0 4 1.25 6.25 40.9
172 0 1 1.25 6.25 42.6
173 0 2 1.25 6.25 43
174 0 1 1.25 6.25 43.4
175 0 4 1.25 6.25 45.1
176 0 3 1.25 6.25 45.5
177 0 4 1.25 6.25 45.9
178 0 4 1.25 6.25 47.6
179 0 3 1.25 6.25 48
180 0 4 1.25 6.25 48.4
181 0 1 1.25 8.75 0.1
182 0 2 1.25 8.75 0.5
183 0 1 1.25 8.75 0.9
184 0 1 1.25 8.75 2.6
185 0 2 1.25 8.75 3
186 0 1 1.25 8.75 3.4
187 0 4 1.25 8.75 5.1
188 0 3 1.25 8.75 5.5
189 0 4 1.25 8.75 5.9
190 0 4 1.25 8.75 7.6
191 0 3 1.25 8.75 8
192 0 4 1.25 8.75 8.4
193 0 4 1.25 8.75 10.1
194 0 3 1.25 8.75 10.5
195 0 4 1.25 8.75 10.9
196 0 1 1.25 8.75 12.6
197 0 2 1.25 8.75 13
198 0 1 1.25 8.75 13.4
199 0 1 1.25 8.75 15.1
200 0 2 1.25 8.75 15.5
201 0 1 1.25 8.75 15.9
202 0 1 1.25 8.75 17.6
203 0 2 1.25 8.75 18
204 0 1 1.25 8.75 18.4
205 0 1 1.25 8.75 20.1
206 0 2 1.25 8.75 20.5
207 0 1 1.25 8.75 20.9
208 0 4 1.25 8.75 22.6
209 0 3 1.25 8.75 23
210 0 4 1.25 8.75 23.4
211 0 1 1.25 8.75 25.1
212 0 2 1.25 8.75 25.5
213 0 1 1.25 8.75 25.9
214 0 1 1.25 8.75 27.6
215 0 2 1.25 8.75 28
216 0 1 1.25 8.75 28.4
217 0 1 1.25 8.75 30.1
218 0 2 1.25 8.75 30.5
219 0 1 1.25 8.75 30.9
220 0 4 1.25 8.75 32.6
221 0 3 1.25 8.75 33
222 0 4 1.25 8.75 33.4
223 0 1 1.25 8.75 35.1
224 0 2 1.25 8.75 35.5
225 0 1 1.25 8.75 35.9
226 0 1 1.25 8.75 37.6
227 0 2 1.25 8.75 38
228 0 1 1.25 8.75 38.4
229 0 1 1.25 8.75 40.1
230 0 2 1.25 8.75 40.5
231 0 1 1.25 8.75 40.9
232 0 4 1.25 8.75 42.6
233 0 3 1.25 8.75 43
234 0 4 1.25 8.75 43.4
235 0 4 1.25 8.75 45.1
236 0 3 1.25 8.75 45.5
237 0 4 1.25 8.75 45.9
238 0 4 1.25 8.75 47.6
239 0 3 1.25 8.75 48
240 0 4 1.25 8.75 48.4
241 0 4 1.25 11.25 0.1
242 0 3 1.25 11.25 0.5
243 0 4 1.25 11.25 0.9
244 0 1 1.25 11.25 2.6
245 0 2 1.25 11.25 3
246 0 1 1.25 11.25 3.4
247 0 4 1.25 11.25 5.1
248 0 3 1.25 11.25 5.5
249 0 4 1.25 11.25 5.9
250 0 4 1.25 11.25 7.6
251 0 3 1.25 11.25 8
252 0 4 1.25 11.25 8.4
253 0 1 1.25 11.25 10.1
254 0 2 1.25 11.25 10.5
255 0 1 1.25 11.25 10.9
256 0 1 1.25 11.25 12.6
257 0 2 1.25 11.25 13
258 0 1 1.25 11.25 13.4
259 0 4 1.25 11.25 15.1
260 0 3 1.25 11.25 15.5
261 0 4 1.25 11.25 15.9
262 0 1 1.25 11.25 17.6
263 0 2 1.25 11.25 18
264 0 1 1.25 11.25 18.4
265 0 4 1.25 11.25 20.1
266 0 3 1.25 11.25 20.5
267 0 4 1.25 11.25 20.9
268 0 4 1.25 11.25 22.6
269 0 3 1.25 11.25 23
270 0 4 1.25 11.25 23.4
271 0 1 1.25 11.25 25.1
272 0 2 1.25 11.25 25.5
273 0 1 1.25 11.25 25.9
274 0 1 1.25 11.25 27.6
275 0 2 1.25 11.25 28
276 0 1 1.25 11.25 28.4
277 0 1 1.25 11.25 30.1
278 0 2 1.25 11.25 30.5
279 0 1 1.25 11.25 30.9
280 0 1 1.25 11.25 32.6
281 0 2 1.25 11.25 33
282 0 1 1.25 11.25 33.4
283 0 4 1.25 11.25 35.1
284 0 3 1.25 11.25 35.5
285 0 4 1.25 11.25 35.9
286 0 4 1.25 11.25 37.6
287 0 3 1.25 11.25 38
288 0 4 1.25 11.25 38.4
289 0 4 1.25 11.25 40.1
290 0 3 1.25 11.25 40.5
291 0 4 1.25 11.25 40.9
292 0 4 1.25 11.25 42.6
293 0 3 1.25 11.25 43
294 0 4 1.25 11.25 43.4
295 0 4 1.25 11.25 45.1
296 0 3 1.25 11.25 45.5
297 0 4 1.25 11.25 45.9
298 0 4 1.25 11.25 47.6
299 0 3 1.25 11.25 48
300 0 4 1.25 11.25 48.4
301 0 1 1.25 16.25 0.1
302 0 2 1.25 16.25 0.5
303 0 1 1.25 16.25 0.9
304 0 4 1.25 16.25 2.6
305 0 3 1.25 16.25 3
306 0 4 1.25 16.25 3.4
307 0 4 1.25 16.25 5.1
308 0 3 1.25 16.25 5.5
309 0 4 1.25 16.25 5.9
310 0 1 1.25 16.25 7.6
311 0 2 1.25 16.25 8
312 0 1 1.25 16.25 8.4
313 0 4 1.25 16.25 10.1
314 0 3 1.25 16.25 10.5
315 0 4 1.25 16.25 10.9
316 0 1 1.25 16.25 12.6
317 0 2 1.25 16.25 13
318 0 1 1.25 16.25 13.4
319 0 1 1.25 16.25 15.1
320 0 2 1.25 16.25 15.5
321 0 1 1.25 16.25 15.9
322 0 1 1.25 16.25 17.6
323 0 2 1.25 16.25 18
324 0 1 1.25 16.25 18.4
325 0 1 1.25 16.25 20.1
326 0 2 1.25 16.25 20.5
327 0 1 1.25 16.25 20.9
328 0 1 1.25 16.25 22.6
329 0 2 1.25 16.25 23
330 0 1 1.25 16.25 23.4
331 0 1 1.25 16.25 25.1
332 0 2 1.25 16.25 25.5
333 0 1 1.25 16.25 25.9
334 0 4 1.25 16.25 27.6
335 0 3 1.25 16.25 28
336 0 4 1.25 16.25 28.4
337 0 1 1.25 16.25 30.1
338 0 2 1.25 16.25 30.5
339 0 1 1.25 16.25 30.9
340 0 1 1.25 16.25 32.6
341 0 2 1.25 16.25 33
342 0 1 1.25 16.25 33.4
343 0 1 1.25 16.25 35.1
344 0 2 1.25 16.25 35.5
345 0 1 1.25 16.25 35.9
346 0 4 1.25 16.25 37.6
347 0 3 1.25 16.25 38
348 0 4 1.25 16.25 38.4
349 0 1 1.25 16.25 40.1
350 0 2 1.25 16.25 40.5
351 0 1 1.25 16.25 40.9
352 0 1 1.25 16.25 42.6
353 0 2 1.25 16.25 43
354 0 1 1.25 16.25 43.4
355 0 4 1.25 16.25 45.1
356 0 3 1.25 16.25 45.5
357 0 4 1.25 16.25 45.9
358 0 1 1.25 16.25 47.6
359 0 2 1.25 16.25 48
360 0 1 1.25 16.25 48.4
361 0 4 1.25 18.75 0.1
362 0 3 1.25 18.75 0.5
363 0 4 1.25 18.75 0.9
364 0 1 1.25 18.75 2.6
365 0 2 1.25 18.75 3
366 0 1 1.25 18.75 3.4
367 0 1 1.25 18.75 5.1
368 0 2 1.25 18.75 5.5
369 0 1 1.25 18.75 5.9
370 0 1 1.25 18.75 7.6
371 0 2 1.25 18.75 8
372 0 1 1.25 18.75 8.4
373 0 4 1.25 18.75 10.1
374 0 3 1.25 18.75 10.5
375 0 4 1.25 18.75 10.9
376 0 4 1.25 18.75 12.6
377 0 3 1.25 18.75 13
378 0 4 1.25 18.75 13.4
379 0 1 1.25 18.75 15.1
380 0 2 1.25 18.75 15.5
381 0 1 1.25 18.75 15.9
382 0 1 1.25 18.75 17.6
383 0 2 1.25 18.75 18
384 0 1 1.25 18.75 18.4
385 0 4 1.25 18.75 20.1
386 0 3 1.25 18.75 20.5
387 0 4 1.25 18.75 20.9
388 0 4 1.25 18.75 22.6
389 0 3 1.25 18.75 23
390 0 4 1.25 18.75 23.4
391 0 1 1.25 18.75 25.1
392 0 2 1.25 18.75 25.5
393 0 1 1.25 18.75 25.9
394 0 4 1.25 18.75 27.6
395 0 3 1.25 18.75 28
396 0 4 1.25 18.75 28.4
397 0 1 1.25 18.75 30.1
398 0 2 1.25 18.75 30.5
399 0 1 1.25 18.75 30.9
400 0 1 1.25 18.75 32.6
401 0 2 1.25 18.75 33
402 0 1 1.25 18.75 33.4
403 0 1 1.25 18.75 35.1
404 0 2 1.25 18.75 35.5
405 0 1 1.25 18.75 35.9
406 0 1 1.25 18.75 37.6
407 0 2 1.25 18.75 38
408 0 1 1.25 18.75 38.4
409 0 4 1.25 18.75 40.1
410 0 3 1.25 18.75 40.5
411 0 4 1.25 18.75 40.9
412 0 1 1.25 18.75 42.6
413 0 2 1.25 18.75 43
414 0 1 1.25 18.75 43.4
415 0 4 1.25 18.75 45.1
416 0 3 1.25 18.75 45.5
417 0 4 1.25 18.75 45.9
418 0 4 1.25 18.75 47.6
419 0 3 1.25 18.75 48
420 0 4 1.25 18.75 48.4
421 0 4 1.25 23.75 0.1
422 0 3 1.25 23.75 0.5
423 0 4 1.25 23.75 0.9
424 0 4 1.25 23.75 2.6
425 0 3 1.25 23.75 3
426 0 4 1.25 23.75 3.4
427 0 4 1.25 23.75 5.1
428 0 3 1.25 23.75 5.5
429 0 4 1.25 23.75 5.9
430 0 1 1.25 23.75 7.6
431 0 2 1.25 23.75 8
432 0 1 1.25 23.75 8.4
433 0 4 1.25 23.75 10.1
434 0 3 1.25 23.75 10.5
435 0 4 1.25 23.75 10.9
436 0 1 1.25 23.75 12.6
437 0 2 1.25 23.75 13
438 0 1 1.25 23.75 13.4
439 0 1 1.25 23.75 15.1
440 0 2 1.25 23.75 15.5
441 0 1 1.25 23.75 15.9
442 0 1 1.25 23.75 17.6
443 0 2 1.25 23.75 18
444 0 1 1.25 23.75 18.4
445 0 1 1.25 23.75 20.1
446 0 2 1.25 23.75 20.5
447 0 1 1.25 23.75 20.9
448 0 1 1.25 23.75 22.6
449 0 2 1.25 23.75 23
450 0 1 1.25 23.75 23.4
451 0 4 1.25 23.75 25.1
452 0 3 1.25 23.75 25.5
453 0 4 1.25 23.75 25.9
454 0 1 1.25 23.75 27.6
455 0 2 1.25 23.75 28
456 0 1 1.25 23.75 28.4
457 0 1 1.25 23.75 30.1
458 0 2 1.25 23.75 30.5
459 0 1 1.25 23.75 30.9
460 0 1 1.25 23.75 32.6
461 0 2 1.25 23.75 33
462 0 1 1.25 23.75 33.4
463 0 1 1.25 23.75 35.1
464 0 2 1.25 23.75 35.5
465 0 1 1.25 23.75 35.9
466 0 4 1.25 23.75 37.6
467 0 3 1.25 23.75 38
468 0 4 1.25 23.75 38.4
469 0 4 1.25 23.75 40.1
470 0 3 1.25 23.75 40.5
471 0 4 1.25 23.75 40.9
472 0 1 1.25 23.75 42.6
473 0 2 1.25 23.75 43
474 0 1 1.25 23.75 43.4
475 0 4 1.25 23.75 45.1
476 0 3 1.25 23.75 45.5
477 0 4 1.25 23.75 45.9
478 0 1 1.25 23.75 47.6
479 0 2 1.25 23.75 48
480 0 1 1.25 23.75 48.4
481 0 1 1.25 28.75 0.1
482 0 2 1.25 28.75 0.5
483 0 1 1.25 28.75 0.9
484 0 1 1.25 28.75 2.6
485 0 2 1.25 28.75 3
486 0 1 1.25 28.75 3.4
487 0 1 1.25 28.75 5.1
488 0 2 1.25 28.75 5.5
489 0 1 1.25 28.75 5.9
490 0 4 1.25 28.75 7.6
491 0 3 1.25 28.75 8
492 0 4 1.25 28.75 8.4
493 0 1 1.25 28.75 10.1
494 0 2 1.25 28.75 10.5
495 0 1 1.25 28.75 10.9
496 0 1 1.25 28.75 12.6
497 0 2 1.25 28.75 13
498 0 1 1.25 28.75 13.4
499 0 1 1.25 28.75 15.1
500 0 2 1.25 28.75 15.5
501 0 1 1.25 28.75 15.9
502 0 4 1.25 28.75 17.6
503 0 3 1.25 28.75 18
504 0 4 1.25 28.75 18.4
505 0 4 1.25 28.75 20.1
506 0 3 1.25 28.75 20.5
507 0 4 1.25 28.75 20.9
508 0 4 1.25 28.75 22.6
509 0 3 1.25 28.75 23
510 0 4 1.25 28.75 23.4
511 0 1 1.25 28.75 25.1
512 0 2 1.25 28.75 25.5
513 0 1 1.25 28.75 25.9
514 0 1 1.25 28.75 27.6
515 0 2 1.25 28.75 28
516 0 1 1.25 28.75 28.4
517 0 1 1.25 28.75 30.1
518 0 2 1.25 28.75 30.5
519 0 1 1.25 28.75 30.9
520 0 4 1.25 28.75 32.6
521 0 3 1.25 28.75 33
522 0 4 1.25 28.75 33.4
523 0 1 1.25 28.75 35.1
524 0 2 1.25 28.75 35.5
525 0 1 1.25 28.75 35.9
526 0 4 1.25 28.75 37.6
527 0 3 1.25 28.75 38
528 0 4 1.25 28.75 38.4
529 0 1 1.25 28.75 40.1
530 0 2 1.25 28.75 40.5
531 0 1 1.25 28.75 40.9
532 0 1 1.25 28.75 42.6
533 0 2 1.25 28.75 43
534 0 1 1.25 28.75 43.4
535 0 4 1.25 28.75 45.1
536 0 3 1.25 28.75 45.5
537 0 4 1.25 28.75 45.9
538 0 1 1.25 28.75 47.6
539 0 2 1.25 28.75 48
540 0 1 1.25 28.75 48.4
541 0 1 1.25 31.25 0.1
542 0 2 1.25 31.25 0.5
543 0 1 1.25 31.25 0.9
544 0 1 1.25 31.25 2.6
545 0 2 1.25 31.25 3
546 0 1 1.25 31.25 3.4
547 0 1 1.25 31.25 5.1
548 0 2 1.25 31.25 5.5
549 0 1 1.25 31.25 5.9
550 0 4 1.25 31.25 7.6
551 0 3 1.25 31.25 8
552 0 4 1.25 31.25 8.4
553 0 4 1.25 31.25 10.1
554 0 3 1.25 31.25 10.5
555 0 4 1.25 31.25 10.9
556 0 4 1.25 31.25 12.6
557 0 3 1.25 31.25 13
558 0 4 1.25 31.25 13.4
559 0 1 1.25 31.25 15.1
560 0 2 1.25 31.25 15.5
561 0 1 1.25 31.25 15.9
562 0 1 1.25 31.25 17.6
563 0 2 1.25 31.25 18
564 0 1 1.25 31.25 18.4
565 0 1 1.25 31.25 20.1
566 0 2 1.25 31.25 20.5
567 0 1 1.25 31.25 20.9
568 0 4 1.25 31.25 22.6
569 0 3 1.25 31.25 23
570 0 4 1.25 31.25 23.4
571 0 4 1.25 31.25 25.1
572 0 3 1.25 31.25 25.5
573 0 4 1.25 31.25 25.9
574 0 1 1.25 31.25 27.6
575 0 2 1.25 31.25 28
576 0 1 1.25 31.25 28.4
577 0 4 1.25 31.25 30.1
578 0 3 1.25 31.25 30.5
579 0 4 1.25 31.25 30.9
580 0 1 1.25 31.25 32.6
581 0 2 1.25 31.25 33
582 0 1 1.25 31.25 33.4
583 0 1 1.25 31.25 35.1
584 0 2 1.25 31.25 35.5
585 0 1 1.25 31.25 35.9
586 0 4 1.25 31.25 37.6
587 0 3 1.25 31.25 38
588 0 4 1.25 31.25 38.4
589 0 1 1.25 31.25 40.1
590 0 2 1.25 31.25 40.5
591 0 1 1.25 31.25 40.9
592 0 4 1.25 31.25 42.6
593 0 3 1.25 31.25 43
594 0 4 1.25 31.25 43.4
595 0 1 1.25 31.25 45.1
596 0 2 1.25 31.25 45.5
597 0 1 1.25 31.25 45.9
598 0 1 1.25 31.25 47.6
599 0 2 1.25 31.25 48
600 0 1 1.25 31.25 48.4
601 0 4 1.25 33.75 0.1
602 0 3 1.25 33.75 0.5
603 0 4 1.25 33.75 0.9
604 0 1 1.25 33.75 2.6
605 0 2 1.25 33.75 3
606 0 1 1.25 33.75 3.4
607 0 4 1.25 33.75 5.1
608 0 3 1.25 33.75 5.5
609 0 4 1.25 33.75 5.9
610 0 4 1.25 33.75 7.6
611 0 3 1.25 33.75 8
612 0 4 1.25 33.75 8.4
613 0 4 1.25 33.75 10.1
614 0 3 1.25 33.75 10.5
615 0 4 1.25 33.75 10.9
616 0 4 1.25 33.75 12.6
617 0 3 1.25 33.75 13
618 0 4 1.25 33.75 13.4
619 0 4 1.25 33.75 15.1
620 0 3 1.25 33.75 15.5
621 0 4 1.25 33.75 15.9
622 0 4 1.25 33.75 17.6
623 0 3 1.25 33.75 18
624 0 4 1.25 33.75 18.4
625 0 4 1.25 33.75 20.1
626 0 3 1.25 33.75 20.5
627 0 4 1.25 33.75 20.9
628 0 1 1.25 33.75 22.6
629 0 2 1.25 33.75 23
630 0 1 1.25 33.75 23.4
631 0 1 1.25 33.75 25.1
632 0 2 1.25 33.75 25.5
633 0 1 1.25 33.75 25.9
634 0 4 1.25 33.75 27.6
635 0 3 1.25 33.75 28
636 0 4 1.25 33.75 28.4
637 0 4 1.25 33.75 30.1
638 0 3 1.25 33.75 30.5
639 0 4 1.25 33.75 30.9
640 0 4 1.25 33.75 32.6
641 0 3 1.25 33.75 33
642 0 4 1.25 33.75 33.4
643 0 1 1.25 33.75 35.1
644 0 2 1.25 33.75 35.5
645 0 1 1.25 33.75 35.9
646 0 1 1.25 33.75 37.6
647 0 2 1.25 33.75 38
648 0 1 1.25 33.75 38.4
649 0 4 1.25 33.75 40.1
650 0 3 1.25 33.75 40.5
651 0 4 1.25 33.75 40.9
652 0 4 1.25 33.75 42.6
653 0 3 1.25 33.75 43
654 0 4 1.25 33.75 43.4
655 0 4 1.25 33.75 45.1
656 0 3 1.25 33.75 45.5
657 0 4 1.25 33.75 45.9
658 0 4 1.25 33.75 47.6
659 0 3 1.25 33.75 48
660 0 4 1.25 33.75 48.4
661 0 4 1.25 36.25 0.1
662 0 3 1.25 36.25 0.5
663 0 4 1.25 36.25 0.9
664 0 4 1.25 36.25 2.6
665 0 3 1.25 36.25 3
666 0 4 1.25 36.25 3.4
667 0 4 1.25 36.25 5.1
668 0 3 1.25 36.25 5.5
669 0 4 1.25 36.25 5.9
670 0 4 1.25 36.25 7.6
671 0 3 1.25 36.25 8
672 0 4 1.25 36.25 8.4
673 0 4 1.25 36.25 10.1
674 0 3 1.25 36.25 10.5
675 0 4 1.25 36.25 10.9
676 0 1 1.25 36.25 12.6
677 0 2 1.25 36.25 13
678 0 1 1.25 36.25 13.4
679 0 4 1.25 36.25 15.1
680 0 3 1.25 36.25 15.5
681 0 4 1.25 36.25 15.9
682 0 4 1.25 36.25 17.6
683 0 3 1.25 36.25 18
684 0 4 1.25 36.25 18.4
685 0 4 1.25 36.25 20.1
686 0 3 1.25 36.25 20.5
687 0 4 1.25 36.25 20.9
688 0 4 1.25 36.25 22.6
689 0 3 1.25 36.25 23
690 0 4 1.25 36.25 23.4
691 0 4 1.25 36.25 25.1
692 0 3 1.25 36.25 25.5
693 0 4 1.25 36.25 25.9
694 0 1 1.25 36.25 27.6
695 0 2 1.25 36.25 28
696 0 1 1.25 36.25 28.4
697 0 1 1.25 36.25 30.1
698 0 2 1.25 36.25 30.5
699 0 1 1.25 36.25 30.9
700 0 1 1.25 36.25 32.6
701 0 2 1.25 36.25 33
702 0 1 1.25 36.25 33.4
703 0 1 1.25 36.25 35.1
704 0 2 1.25 36.25 35.5
705 0 1 1.25 36.25 35.9
706 0 1 1.25 36.25 37.6
707 0 2 1.25 36.25 38
708 0 1 1.25 36.25 38.4
709 0 1 1.25 36.25 40.1
710 0 2 1.25 36.25 40.5
711 0 1 1.25 36.25 40.9
712 0 4 1.25 36.25 42.6
713 0 3 1.25 36.25 43
714 0 4 1.25 36.25 43.4
715 0 4 1.25 36.25 45.1
716 0 3 1.25 36.25 45.5
717 0 4 1.25 36.25 45.9
718 0 4 1.25 36.25 47.6
719 0 3 1.25 36.25 48
720 0 4 1.25 36.25 48.4
721 0 4 1.25 38.75 0.1
722 0 3 1.25 38.75 0.5
723 0 4 1.25 38.75 0.9
724 0 1 1.25 38.75 2.6
725 0 2 1.25 38.75 3
726 0 1 1.25 38.75 3.4
727 0 1 1.25 38.75 5.1
728 0 2 1.25 38.75 5.5
729 0 1 1.25 38.75 5.9
730 0 4 1.25 38.75 7.6
731 0 3 1.25 38.75 8
732 0 4 1.25 38.75 8.4
733 0 1 1.25 38.75 10.1
734 0 2 1.25 38.75 10.5
735 0 1 1.25 38.75 10.9
736 0 4 1.25 38.75 12.6
737 0 3 1.25 38.75 13
738 0 4 1.25 38.75 13.4
739 0 1 1.25 38.75 15.1
740 0 2 1.25 38.75 15.5
741 0 1 1.25 38.75 15.9
742 0 4 1.25 38.75 17.6
743 0 3 1.25 38.75 18
744 0 4 1.25 38.75 18.4
745 0 1 1.25 38.75 20.1
746 0 2 1.25 38.75 20.5
747 0 1 1.25 38.75 20.9
748 0 4 1.25 38.75 22.6
749 0 3 1.25 38.75 23
750 0 4 1.25 38.75 23.4
751 0 1 1.25 38.75 25.1
752 0 2 1.25 38.75 25.5
753 0 1 1.25 38.75 25.9
754 0 4 1.25 38.75 27.6
755 0 3 1.25 38.75 28
756 0 4 1.25 38.75 28.4
757 0 1 1.25 38.75 30.1
758 0 2 1.25 38.75 30.5
759 0 1 1.25 38.75 30.9
760 0 4 1.25 38.75 32.6
761 0 3 1.25 38.75 33
762 0 4 1.25 38.75 33.4
763 0 4 1.25 38.75 35.1
764 0 3 1.25 38.75 35.5
765 0 4 1.25 38.75 35.9
766 0 1 1.25 38.75 37.6
767 0 2 1.25 38.75 38
768 0 1 1.25 38.75 38.4
769 0 1 1.25 38.75 40.1
770 0 2 1.25 38.75 40.5
771 0 1 1.25 38.75 40.9
772 0 4 1.25 38.75 42.6
773 0 3 1.25 38.75 43
774 0 4 1.25 38.75 43.4
775 0 1 1.25 38.75 45.1
776 0 2 1.25 38.75 45.5
777 0 1 1.25 38.75 45.9
778 0 4 1.25 38.75 47.6
779 0 3 1.25 38.75 48
780 0 4 1.25 38.75 48.4
781 0 4 1.25 41.25 0.1
782 0 3 1.25 41.25 0.5
783 0 4 1.25 41.25 0.9
784 0 1 1.25 41.25 2.6
785 0 2 1.25 41.25 3
786 0 1 1.25 41.25 3.4
787 0 4 1.25 41.25 5.1
788 0 3 1.25 41.25 5.5
789 0 4 1.25 41.25 5.9
790 0 4 1.25 41.25 7.6
791 0 3 1.25 41.25 8
792 0 4 1.25 41.25 8.4
793 0 4 1.25 41.25 10.1
794 0 3 1.25 41.25 10.5
795 0 4 1.25 41.25 10.9
796 0 4 1.25 41.25 12.6
797 0 3 1.25 41.25 13
798 0 4 1.25 41.25 13.4
799 0 1 1.25 41.25 15.1
800 0 2 1.25 41.25 15.5
801 0 1 1.25 41.25 15.9
802 0 4 1.25 41.25 17.6
803 0 3 1.25 41.25 18
804 0 4 1.25 41.25 18.4
805 0 4 1.25 41.25 20.1
806 0 3 1.25 41.25 20.5
807 0 4 1.25 41.25 20.9
808 0 1 1.25 41.25 22.6
809 0 2 1.25 41.25 23
810 0 1 1.25 41.25 23.4
811 0 4 1.25 41.25 25.1
812 0 3 1.25 41.25 25.5
813 0 4 1.25 41.25 25.9
814 0 4 1.25 41.25 27.6
815 0 3 1.25 41.25 28
816 0 4 1.25 41.25 28.4
817 0 4 1.25 41.25 30.1
818 0 3 1.25 41.25 30.5
819 0 4 1.25 41.25 30.9
820 0 1 1.25 41.25 32.6
821 0 2 1.25 41.25 33
822 0 1 1.25 41.25 33.4
823 0 4 1.25 41.25 35.1
824 0 3 1.25 41.25 35.5
825 0 4 1.25 41.25 35.9
826 0 1 1.25 41.25 37.6
827 0 2 1.25 41.25 38
828 0 1 1.25 41.25 38.4
829 0 4 1.25 41.25 40.1
830 0 3 1.25 41.25 40.5
831 0 4 1.25 41.25 40.9
832 0 4 1.25 41.25 42.6
833 0 3 1.25 41.25 43
834 0 4 1.25 41.25 43.4
835 0 1 1.25 41.25 45.1
836 0 2 1.25 41.25 45.5
837 0 1 1.25 41.25 45.9
838 0 4 1.25 41.25 47.6
839 0 3 1.25 41.25 48
840 0 4 1.25 41.25 48.4
841 0 4 1.25 43.75 0.1
842 0 3 1.25 43.75 0.5
843 0 4 1.25 43.75 0.9
844 0 4 1.25 43.75 2.6
845 0 3 1.25 43.75 3
846 0 4 1.25 43.75 3.4
847 0 4 1.25 43.75 5.1
848 0 3 1.25 43.75 5.5
849 0 4 1.25 43.75 5.9
850 0 1 1.25 43.75 7.6
851 0 2 1.25 43.75 8
852 0 1 1.25 43.75 8.4
853 0 4 1.25 43.75 10.1
854 0 3 1.25 43.75 10.5
855 0 4 1.25 43.75 10.9
856 0 1 1.25 43.75 12.6
857 0 2 1.25 43.75 13
858 0 1 1.25 43.75 13.4
859 0 1 1.25 43.75 15.1
860 0 2 1.25 43.75 15.5
861 0 1 1.25 43.75 15.9
862 0 1 1.25 43.75 17.6
863 0 2 1.25 43.75 18
864 0 1 1.25 43.75 18.4
865 0 1 1.25 43.75 20.1
866 0 2 1.25 43.75 20.5
867 0 1 1.25 43.75 20.9
868 0 1 1.25 43.75 22.6
869 0 2 1.25 43.75 23
870 0 1 1.25 43.75 23.4
871 0 1 1.25 43.75 25.1
872 0 2 1.25 43.75 25.5
873 0 1 1.25 43.75 25.9
874 0 4 1.25 43.75 27.6
875 0 3 1.25 43.75 28
876 0 4 1.25 43.75 28.4
877 0 4 1.25 43.75 30.1
878 0 3 1.25 43.75 30.5
879 0 4 1.25 43.75 30.9
880 0 4 1.25 43.75 32.6
881 0 3 1.25 43.75 33
882 0 4 1.25 43.75 33.4
883 0 4 1.25 43.75 35.1
884 0 3 1.25 43.75 35.5
885 0 4 1.25 43.75 35.9
886 0 4 1.25 43.75 37.6
887 0 3 1.25 43.75 38
888 0 4 1.25 43.75 38.4
889 0 1 1.25 43.75 40.1
890 0 2 1.25 43.75 40.5
891 0 1 1.25 43.75 40.9
892 0 1 1.25 43.75 42.6
893 0 2 1.25 43.75 43
894 0 1 1.25 43.75 43.4
895 0 4 1.25 43.75 45.1
896 0 3 1.25 43.75 45.5
897 0 4 1.25 43.75 45.9
898 0 1 1.25 43.75 47.6
899 0 2 1.25 43.75 48
900 0 1 1.25 43.75 48.4
901 0 1 1.25 46.25 0.1
902 0 2 1.25 46.25 0.5
903 0 1 1.25 46.25 0.9
904 0 4 1.25 46.25 2.6
905 0 3 1.25 46.25 3
906 0 4 1.25 46.25 3.4
907 0 1 1.25 46.25 5.1
908 0 2 1.25 46.25 5.5
909 0 1 1.25 46.25 5.9
910 0 4 1.25 46.25 7.6
911 0 3 1.25 46.25 8
912 0 4 1.25 46.25 8.4
913 0 4 1.25 46.25 10.1
914 0 3 1.25 46.25 10.5
915 0 4 1.25 46.25 10.9
916 0 1 1.25 46.25 12.6
917 0 2 1.25 46.25 13
918 0 1 1.25 46.25 13.4
919 0 1 1.25 46.25 15.1
920 0 2 1.25 46.25 15.5
921 0 1 1.25 46.25 15.9
922 0 1 1.25 46.25 17.6
923 0 2 1.25 46.25 18
924 0 1 1.25 46.25 18.4
925 0 4 1.25 46.25 20.1
926 0 3 1.25 46.25 20.5
927 0 4 1.25 46.25 20.9
928 0 4 1.25 46.25 22.6
929 0 3 1.25 46.25 23
930 0 4 1.25 46.25 23.4
931 0 4 1.25 46.25 25.1
932 0 3 1.25 46.25 25.5
933 0 4 1.25 46.25 25.9
934 0 4 1.25 46.25 27.6
935 0 3 1.25 46.25 28
936 0 4 1.25 46.25 28.4
937 0 4 1.25 46.25 30.1
938 0 3 1.25 46.25 30.5
939 0 4 1.25 46.25 30.9
940 0 1 1.25 46.25 32.6
941 0 2 1.25 46.25 33
942 0 1 1.25 46.25 33.4
943 0 1 1.25 46.25 35.1
944 0 2 1.25 46.25 35.5
945 0 1 1.25 46.25 35.9
946 0 1 1.25 46.25 37.6
947 0 2 1.25 46.25 38
948 0 1 1.25 46.25 38.4
949 0 1 1.25 46.25 40.1
950 0 2 1.25 46.25 40.5
951 0 1 1.25 46.25 40.9
952 0 4 1.25 46.25 42.6
953 0 3 1.25 46.25 43
954 0 4 1.25 46.25 43.4
955 0 1 1.25 46.25 45.1
956 0 2 1.25 46.25 45.5
957 0 1 1.25 46.25 45.9
958 0 1 1.25 46.25 47.6
959 0 2 1.25 46.25 48
960 0 1 1.25 46.25 48.4
961 0 4 1.25 48.75 0.1
962 0 3 1.25 48.75 0.5
963 0 4 1.25 48.75 0.9
964 0 4 1.25 48.75 2.6
965 0 3 1.25 48.75 3
966 0 4 1.25 48.75 3.4
967 0 1 1.25 48.75 5.1
968 0 2 1.25 48.75 5.5
969 0 1 1.25 48.75 5.9
970 0 1 1.25 48.75 7.6
971 0 2 1.25 48.75 8
972 0 1 1.25 48.75 8.4
973 0 1 1.25 48.75 10.1
974 0 2 1.25 48.75 10.5
975 0 1 1.25 48.75 10.9
976 0 1 1.25 48.75 12.6
977 0 2 1.25 48.75 13
978 0 1 1.25 48.75 13.4
979 0 4 1.25 48.75 15.1
980 0 3 1.25 48.75 15.5
981 0 4 1.25 48.75 15.9
982 0 1 1.25 48.75 17.6
983 0 2 1.25 48.75 18
984 0 1 1.25 48.75 18.4
985 0 4 1.25 48.75 20.1
986 0 3 1.25 48.75 20.5
987 0 4 1.25 48.75 20.9
988 0 4 1.25 48.75 22.6
989 0 3 1.25 48.75 23
990 0 4 1.25 48.75 23.4
991 0 4 1.25 48.75 25.1
992 0 3 1.25 48.75 25.5
993 0 4 1.25 48.75 25.9
994 0 1 1.25 48.75 27.6
995 0 2 1.25 48.75 28
996 0 1 1.25 48.75 28.4
997 0 4 1.25 48.75 30.1
998 0 3 1.25 48.75 30.5
999 0 4 1.25 48.75 30.9
1000 0 1 1.25 48.75 32.6
1001 0 2 1.25 48.75 33
1002 0 1 1.25 48.75 33.4
1003 0 1 1.25 48.75 35.1
1004 0 2 1.25 48.75 35.5
1005 0 1 1.25 48.75 35.9
1006 0 1 1.25 48.75 37.6
1007 0 2 1.25 48.75 38
1008 0 1 1.25 48.75 38.4
1009 0 4 1.25 48.75 40.1
1010 0 3 1.25 48.75 40.5
1011 0 4 1.25 48.75 40.9
1012 0 1 1.25 48.75 42.6
1013 0 2 1.25 48.75 43
1014 0 1 1.25 48.75 43.4
1015 0 4 1.25 48.75 45.1
1016 0 3 1.25 48.75 45.5
1017 0 4 1.25 48.75 45.9
1018 0 1 1.25 48.75 47.6
1019 0 2 1.25 48.75 48
1020 0 1 1.25 48.75 48.4
1021 0 4 3.75 1.25 0.1
1022 0 3 3.75 1.25 0.5
1023 0 4 3.75 1.25 0.9
1024 0 4 3.75 1.25 2.6
1025 0 3 3.75 1.25 3
1026 0 4 3.75 1.25 3.4
1027 0 4 3.75 1.25 5.1
1028 0 3 3.75 1.25 5.5
1029 0 4 3.75 1.25 5.9
1030 0 4 3.75 1.25 7.6
1031 0 3 3.75 1.25 8
1032 0 4 3.75 1.25 8.4
1033 0 1 3.75 1.25 10.1
1034 0 2 3.75 1.25 10.5
1035 0 1 3.75 1.25 10.9
1036 0 1 3.75 1.25 12.6
1037 0 2 3.75 1.25 13
1038 0 1 3.75 1.25 13.4
1039 0 1 3.75 1.25 15.1
1040 0 2 3.75 1.25 15.5
1041 0 1 3.75 1.25 15.9
1042 0 1 3.75 1.25 17.6
1043 0 2 3.75 1.25 18
1044 0 1 3.75 1.25 18.4
1045 0 4 3.75 1.25 20.1
1046 0 3 3.75 1.25 20.5
1047 0 4 3.75 1.25 20.9
1048 0 1 3.75 1.25 22.6
1049 0 2 3.75 1.25 23
1050 0 1 3.75 1.25 23.4
1051 0 4 3.75 1.25 25.1
1052 0 3 3.75 1.25 25.5
1053 0 4 3.75 1.25 25.9
1054 0 4 3.75 1.25 27.6
1055 0 3 3.75 1.25 28
1056 0 4 3.75 1.25 28.4
1057 0 4 3.75 1.25 30.1
1058 0 3 3.75 1.25 30.5
1059 0 4 3.75 1.25 30.9
1060 0 4 3.75 1.25 32.6
1061 0 3 3.75 1.25 33
1062 0 4 3.75 1.25 33.4
1063 0 4 3.75 1.25 35.1
1064 0 3 3.75 1.25 35.5
1065 0 4 3.75 1.25 35.9
1066 0 4 3.75 1.25 37.6
1067 0 3 3.75 1.25 38
1068 0 4 3.75 1.25 38.4
1069 0 4 3.75 1.25 40.1
1070 0 3 3.75 1.25 40.5
1071 0 4 3.75 1.25 40.9
1072 0 1 3.75 1.25 42.6
1073 0 2 3.75 1.25 43
1074 0 1 3.75 1.25 43.4
1075 0 1 3.75 1.25 45.1
1076 0 2 3.75 1.25 45.5
1077 0 1 3.75 1.25 45.9
1078 0 4 3.75 1.25 47.6
1079 0 3 3.75 1.25 48
1080 0 4 3.75 1.25 48.4
1081 0 4 3.75 3.75 0.1
1082 0 3 3.75 3.75 0.5
1083 0 4 3.75 3.75 0.9
1084 0 1 3.75 3.75 2.6
1085 0 2 3.75 3.75 3
1086 0 1 3.75 3.75 3.4
1087 0 4 3.75 3.75 5.1
1088 0 3 3.75 3.75 5.5
1089 0 4 3.75 3.75 5.9
1090 0 1 3.75 3.75 7.6
1091 0 2 3.75 3.75 8
1092 0 1 3.75 3.75 8.4
1093 0 4 3.75 3.75 10.1
1094 0 3 3.75 3.75 10.5
1095 0 4 3.75 3.75 10.9
1096 0 4 3.75 3.75 12.6
1097 0 3 3.75 3.75 13
1098 0 4 3.75 3.75 13.4
1099 0 4 3.75 3.75 15.1
1100 0 3 3.75 3.75 15.5
1101 0 4 3.75 3.75 15.9
1102 0 4 3.75 3.75 17.6
1103 0 3 3.75 3.75 18
1104 0 4 3.75 3.75 18.4
1105 0 4 3.75 3.75 20.1
1106 0 3 3.75 3.75 20.5
1107 0 4 3.75 3.75 20.9
1108 0 4 3.75 3.75 22.6
1109 0 3 3.75 3.75 23
1110 0 4 3.75 3.75 23.4
1111 0 4 3.75 3.75 25.1
1112 0 3 3.75 3.75 25.5
1113 0 4 3.75 3.75 25.9
1114 0 1 3.75 3.75 27.6
1115 0 2 3.75 3.75 28
1116 0 1 3.75 3.75 28.4
1117 0 4 3.75 3.75 30.1
1118 0 3 3.75 3.75 30.5
1119 0 4 3.75 3.75 30.9
1120 0 1 3.75 3.75 32.6
1121 0 2 3.75 3.75 33
1122 0 1 3.75 3.75 33.4
1123 0 4 3.75 3.75 35.1
1124 0 3 3.75 3.75 35.5
1125 0 4 3.75 3.75 35.9
1126 0 4 3.75 3.75 37.6
1127 0 3 3.75 3.75 38
1128 0 4 3.75 3.75 38.4
1129 0 1 3.75 3.75 40.1
1130 0 2 3.75 3.75 40.5
1131 0 1 3.75 3.75 40.9
1132 0 1 3.75 3.75 42.6
1133 0 2 3.75 3.75 43
1134 0 1 3.75 3.75 43.4
1135 0 4 3.75 3.75 45.1
1136 0 3 3.75 3.75 45.5
1137 0 4 3.75 3.75 45.9
1138 0 1 3.75 3.75 47.6
1139 0 2 3.75 3.75 48
1140 0 1 3.75 3.75 48.4
1141 0 1 3.75 6.25 0.1
1142 0 2 3.75 6.25 0.5
1143 0 1 3.75 6.25 0.9
1144 0 1 3.75 6.25 2.6
1145 0 2 3.75 6.25 3
1146 0 1 3.75 6.25 3.4
1147 0 1 3.75 6.25 5.1
1148 0 2 3.75 6.25 5.5
1149 0 1 3.75 6.25 5.9
1150 0 4 3.75 6.25 7.6
1151 0 3 3.75 6.25 8
1152 0 4 3.75 6.25 8.4
1153 0 4 3.75 6.25 10.1
1154 0 3 3.75 6.25 10.5
1155 0 4 3.75 6.25 10.9
1156 0 1 3.75 6.25 12.6
1157 0 2 3.75 6.25 13
1158 0 1 3.75 6.25 13.4
1159 0 4 3.75 6.25 15.1
1160 0 3 3.75 6.25 15.5
1161 0 4 3.75 6.25 15.9
1162 0 4 3.75 6.25 17.6
1163 0 3 3.75 6.25 18
1164 0 4 3.75 6.25 18.4
1165 0 1 3.75 6.25 20.1
1166 0 2 3.75 6.25 20.5
1167 0 1 3.75 6.25 20.9
1168 0 1 3.75 6.25 22.6
1169 0 2 3.75 6.25 23
1170 0 1 3.75 6.25 23.4
1171 0 1 3.75 6.25 25.1
1172 0 2 3.75 6.25 25.5
1173 0 1 3.75 6.25 25.9
1174 0 4 3.75 6.25 27.6
1175 0 3 3.75 6.25 28
1176 0 4 3.75 6.25 28.4
1177 0 1 3.75 6.25 30.1
1178 0 2 3.75 6.25 30.5
1179 0 1 3.75 6.25 30.9
1180 0 1 3.75 6.25 32.6
1181 0 2 3.75 6.25 33
1182 0 1 3.75 6.25 33.4
1183 0 1 3.75 6.25 35.1
1184 0 2 3.75 6.25 35.5
1185 0 1 3.75 6.25 35.9
1186 0 4 3.75 6.25 37.6
1187 0 3 3.75 6.25 38
1188 0 4 3.75 6.25 38.4
1189 0 1 3.75 6.25 40.1
1190 0 2 3.75 6.25 40.5
1191 0 1 3.75 6.25 40.9
1192 0 4 3.75 6.25 42.6
1193 0 3 3.75 6.25 43
1194 0 4 3.75 6.25 43.4
1195 0 1 3.75 6.25 45.1
1196 0 2 3.75 6.25 45.5
1197 0 1 3.75 6.25 45.9
1198 0 1 3.75 6.25 47.6
1199 0 2 3.75 6.25 48
1200 0 1 3.75 6.25 48.4
1201 0 1 3.75 8.75 0.1
1202 0 2 3.75 8.75 0.5
1203 0 1 3.75 8.75 0.9
1204 0 4 3.75 8.75 2.6
1205 0 3 3.75 8.75 3
1206 0 4 3.75 8.75 3.4
1207 0 4 3.75 8.75 5.1
1208 0 3 3.75 8.75 5.5
1209 0 4 3.75 8.75 5.9
1210 0 4 3.75 8.75 7.6
1211 0 3 3.75 8.75 8
1212 0 4 3.75 8.75 8.4
1213 0 4 3.75 8.75 10.1
1214 0 3 3.75 8.75 10.5
1215 0 4 3.75 8.75 10.9
1216 0 1 3.75 8.75 12.6
1217 0 2 3.75 8.75 13
1218 0 1 3.75 8.75 13.4
1219 0 1 3.75 8.75 15.1
1220 0 2 3.75 8.75 15.5
1221 0 1 3.75 8.75 15.9
1222 0 1 3.75 8.75 17.6
1223 0 2 3.75 8.75 18
1224 0 1 3.75 8.75 18.4
1225 0 4 3.75 8.75 20.1
1226 0 3 3.75 8.75 20.5
1227 0 4 3.75 8.75 20.9
1228 0 4 3.75 8.75 22.6
1229 0 3 3.75 8.75 23
1230 0 4 3.75 8.75 23.4
1231 0 1 3.75 8.75 25.1
1232 0 2 3.75 8.75 25.5
1233 0 1 3.75 8.75 25.9
1234 0 4 3.75 8.75 27.6
1235 0 3 3.75 8.75 28
1236 0 4 3.75 8.75 28.4
1237 0 4 3.75 8.75 30.1
1238 0 3 3.75 8.75 30.5
1239 0 4 3.75 8.75 30.9
1240 0 1 3.75 8.75 32.6
1241 0 2 3.75 8.75 33
1242 0 1 3.75 8.75 33.4
1243 0 1 3.75 8.75 35.1
1244 0 2 3.75 8.75 35.5
1245 0 1 3.75 8.75 35.9
1246 0 4 3.75 8.75 37.6
1247 0 3 3.75 8.75 38
1248 0 4 3.75 8.75 38.4
1249 0 4 3.75 8.75 40.1
1250 0 3 3.75 8.75 40.5
1251 0 4 3.75 8.75 40.9
1252 0 4 3.75 8.75 42.6
1253 0 3 3.75 8.75 43
1254 0 4 3.75 8.75 43.4
1255 0 1 3.75 8.75 45.1
1256 0 2 3.75 8.75 45.5
1257 0 1 3.75 8.75 45.9
1258 0 1 3.75 8.75 47.6
1259 0 2 3.75 8.75 48
1260 0 1 3.75 8.75 48.4
1261 0 4 3.75 11.25 0.1
1262 0 3 3.75 11.25 0.5
1263 0 4 3.75 11.25 0.9
1264 0 1 3.75 11.25 2.6
1265 0 2 3.75 11.25 3
1266 0 1 3.75 11.25 3.4
1267 0 4 3.75 11.25 5.1
1268 0 3 3.75 11.25 5.5
1269 0 4 3.75 11.25 5.9
1270 0 1 3.75 11.25 7.6
1271 0 2 3.75 11.25 8
1272 0 1 3.75 11.25 8.4
1273 0 1 3.75 11.25 10.1
1274 0 2 3.75 11.25 10.5
1275 0 1 3.75 11.25 10.9
1276 0 1 3.75 11.25 12.6
1277 0 2 3.75 11.25 13
1278 0 1 3.75 11.25 13.4
1279 0 4 3.75 11.25 15.1
1280 0 3 3.75 11.25 15.5
1281 0 4 3.75 11.25 15.9
1282 0 1 3.75 11.25 17.6